 Entering Gaussian System, Link 0=/usr/local/gaussian/2016-C.01/g16/g16
 Initial command:
 /usr/local/gaussian/2016-C.01/g16/l1.exe "/scratch/pbs.4144441.ossachilles/Gau-140728.inp" -scrdir="/scratch/pbs.4144441.ossachilles/"
 Entering Link 1 = /usr/local/gaussian/2016-C.01/g16/l1.exe PID=    140729.
  
 Copyright (c) 1988-2019, Gaussian, Inc.  All Rights Reserved.
  
 This is part of the Gaussian(R) 16 program.  It is based on
 the Gaussian(R) 09 system (copyright 2009, Gaussian, Inc.),
 the Gaussian(R) 03 system (copyright 2003, Gaussian, Inc.),
 the Gaussian(R) 98 system (copyright 1998, Gaussian, Inc.),
 the Gaussian(R) 94 system (copyright 1995, Gaussian, Inc.),
 the Gaussian 92(TM) system (copyright 1992, Gaussian, Inc.),
 the Gaussian 90(TM) system (copyright 1990, Gaussian, Inc.),
 the Gaussian 88(TM) system (copyright 1988, Gaussian, Inc.),
 the Gaussian 86(TM) system (copyright 1986, Carnegie Mellon
 University), and the Gaussian 82(TM) system (copyright 1983,
 Carnegie Mellon University). Gaussian is a federally registered
 trademark of Gaussian, Inc.
  
 This software contains proprietary and confidential information,
 including trade secrets, belonging to Gaussian, Inc.
  
 This software is provided under written license and may be
 used, copied, transmitted, or stored only in accord with that
 written license.
  
 The following legend is applicable only to US Government
 contracts under FAR:
  
                    RESTRICTED RIGHTS LEGEND
  
 Use, reproduction and disclosure by the US Government is
 subject to restrictions as set forth in subparagraphs (a)
 and (c) of the Commercial Computer Software - Restricted
 Rights clause in FAR 52.227-19.
  
 Gaussian, Inc.
 340 Quinnipiac St., Bldg. 40, Wallingford CT 06492
  
  
 ---------------------------------------------------------------
 Warning -- This program may not be used in any manner that
 competes with the business of Gaussian, Inc. or will provide
 assistance to any competitor of Gaussian, Inc.  The licensee
 of this program is prohibited from giving any competitor of
 Gaussian, Inc. access to this program.  By using this program,
 the user acknowledges that Gaussian, Inc. is engaged in the
 business of creating and licensing software in the field of
 computational chemistry and represents and warrants to the
 licensee that it is not a competitor of Gaussian, Inc. and that
 it will not use this program in any manner prohibited above.
 ---------------------------------------------------------------
  

 Cite this work as:
 Gaussian 16, Revision C.01,
 M. J. Frisch, G. W. Trucks, H. B. Schlegel, G. E. Scuseria, 
 M. A. Robb, J. R. Cheeseman, G. Scalmani, V. Barone, 
 G. A. Petersson, H. Nakatsuji, X. Li, M. Caricato, A. V. Marenich, 
 J. Bloino, B. G. Janesko, R. Gomperts, B. Mennucci, H. P. Hratchian, 
 J. V. Ortiz, A. F. Izmaylov, J. L. Sonnenberg, D. Williams-Young, 
 F. Ding, F. Lipparini, F. Egidi, J. Goings, B. Peng, A. Petrone, 
 T. Henderson, D. Ranasinghe, V. G. Zakrzewski, J. Gao, N. Rega, 
 G. Zheng, W. Liang, M. Hada, M. Ehara, K. Toyota, R. Fukuda, 
 J. Hasegawa, M. Ishida, T. Nakajima, Y. Honda, O. Kitao, H. Nakai, 
 T. Vreven, K. Throssell, J. A. Montgomery, Jr., J. E. Peralta, 
 F. Ogliaro, M. J. Bearpark, J. J. Heyd, E. N. Brothers, K. N. Kudin, 
 V. N. Staroverov, T. A. Keith, R. Kobayashi, J. Normand, 
 K. Raghavachari, A. P. Rendell, J. C. Burant, S. S. Iyengar, 
 J. Tomasi, M. Cossi, J. M. Millam, M. Klene, C. Adamo, R. Cammi, 
 J. W. Ochterski, R. L. Martin, K. Morokuma, O. Farkas, 
 J. B. Foresman, and D. J. Fox, Gaussian, Inc., Wallingford CT, 2019.
 
 ******************************************
 Gaussian 16:  EM64L-G16RevC.01  3-Jul-2019
                11-May-2022 
 ******************************************
 %nproc=4
 Will use up to    4 processors via shared memory.
 %mem=4000MB
 Default route: MAXDISK=1700GB
 ----------------------------------------
 #p mp2/3-21g opt freq gfinput iop(6/7=3)
 ----------------------------------------
 1/18=20,19=15,38=1/1,3;
 2/9=110,12=2,17=6,18=5,40=1/2;
 3/5=5,11=9,24=10,25=1,30=1,71=1/1,2,3;
 4//1;
 5/5=2,38=5/2;
 8/6=4,10=1/1;
 9/15=2,16=-3/6;
 10/5=1/2;
 6/7=3,8=2,9=2,10=2/1;
 7/12=2/1,2,3,16;
 1/18=20,19=15/3(2);
 2/9=110/2;
 99//99;
 2/9=110/2;
 3/5=5,11=9,25=1,30=1,71=1/1,2,3;
 4/5=5,16=3,69=1/1;
 5/5=2,38=5/2;
 8/6=4,10=1/1;
 9/15=2,16=-3/6;
 10/5=1/2;
 7/12=2/1,2,3,16;
 1/18=20,19=15/3(-8);
 2/9=110/2;
 6/7=3,8=2,9=2,10=2/1;
 99/9=10/99;
 Leave Link    1 at Wed May 11 08:21:36 2022, MaxMem=   524288000 cpu:               0.3 elap:               0.1
 (Enter /usr/local/gaussian/2016-C.01/g16/l101.exe)
 ----------------------
 Arkadiusz Rembiszewski
 ----------------------
 Symbolic Z-matrix:
 Charge =  0 Multiplicity = 1
 O                     0.        0.        0. 
 C                     0.        0.        1. 
 S                     0.        0.        2. 
 
 ITRead=  0  0  0
 MicOpt= -1 -1 -1
 NAtoms=      3 NQM=        3 NQMF=       0 NMMI=      0 NMMIF=      0
                NMic=       0 NMicF=      0.
                    Isotopes and Nuclear Properties:
 (Nuclear quadrupole moments (NQMom) in fm**2, nuclear magnetic moments (NMagM)
  in nuclear magnetons)

  Atom         1           2           3
 IAtWgt=          16          12          32
 AtmWgt=  15.9949146  12.0000000  31.9720718
 NucSpn=           0           0           0
 AtZEff=  -0.0000000  -0.0000000  -0.0000000
 NQMom=    0.0000000   0.0000000   0.0000000
 NMagM=    0.0000000   0.0000000   0.0000000
 AtZNuc=   8.0000000   6.0000000  16.0000000
 Leave Link  101 at Wed May 11 08:21:36 2022, MaxMem=   524288000 cpu:               0.6 elap:               0.2
 (Enter /usr/local/gaussian/2016-C.01/g16/l103.exe)

 GradGradGradGradGradGradGradGradGradGradGradGradGradGradGradGradGradGrad
 Berny optimization.
 Initialization pass.
                           ----------------------------
                           !    Initial Parameters    !
                           ! (Angstroms and Degrees)  !
 --------------------------                            --------------------------
 ! Name  Definition              Value          Derivative Info.                !
 --------------------------------------------------------------------------------
 ! R1    R(1,2)                  1.0            estimate D2E/DX2                !
 ! R2    R(2,3)                  1.0            estimate D2E/DX2                !
 ! A1    L(1,2,3,-1,-1)        180.0            estimate D2E/DX2                !
 ! A2    L(1,2,3,-2,-2)        180.0            estimate D2E/DX2                !
 --------------------------------------------------------------------------------
 Trust Radius=3.00D-01 FncErr=1.00D-07 GrdErr=1.00D-07 EigMax=2.50D+02 EigMin=1.00D-04
 Number of steps in this run=     20 maximum allowed number of steps=    100.
 GradGradGradGradGradGradGradGradGradGradGradGradGradGradGradGradGradGrad

 Leave Link  103 at Wed May 11 08:21:36 2022, MaxMem=   524288000 cpu:               0.1 elap:               0.1
 (Enter /usr/local/gaussian/2016-C.01/g16/l202.exe)
                          Input orientation:                          
 ---------------------------------------------------------------------
 Center     Atomic      Atomic             Coordinates (Angstroms)
 Number     Number       Type             X           Y           Z
 ---------------------------------------------------------------------
      1          8           0        0.000000    0.000000    0.000000
      2          6           0        0.000000    0.000000    1.000000
      3         16           0        0.000000    0.000000    2.000000
 ---------------------------------------------------------------------
                    Distance matrix (angstroms):
                    1          2          3
     1  O    0.000000
     2  C    1.000000   0.000000
     3  S    2.000000   1.000000   0.000000
 Stoichiometry    COS
 Framework group  C*V[C*(OCS)]
 Deg. of freedom     2
 Full point group                 C*V     NOp   4
 Largest Abelian subgroup         C2V     NOp   4
 Largest concise Abelian subgroup C1      NOp   1
                         Standard orientation:                         
 ---------------------------------------------------------------------
 Center     Atomic      Atomic             Coordinates (Angstroms)
 Number     Number       Type             X           Y           Z
 ---------------------------------------------------------------------
      1          8           0        0.000000    0.000000   -1.266667
      2          6           0        0.000000    0.000000   -0.266667
      3         16           0        0.000000    0.000000    0.733333
 ---------------------------------------------------------------------
 Rotational constants (GHZ):           0.0000000          11.5620511          11.5620511
 Leave Link  202 at Wed May 11 08:21:36 2022, MaxMem=   524288000 cpu:               0.1 elap:               0.1
 (Enter /usr/local/gaussian/2016-C.01/g16/l301.exe)
 Standard basis: 3-21G (6D, 7F)
 Ernie: Thresh=  0.10000D-02 Tol=  0.10000D-05 Strict=F.
 AO basis set in the form of general basis input (Overlap normalization):
      1 0
 S   3 1.00       0.000000000000
      0.3220370000D+03  0.5923939339D-01
      0.4843080000D+02  0.3514999608D+00
      0.1042060000D+02  0.7076579210D+00
 SP   2 1.00       0.000000000000
      0.7402940000D+01 -0.4044535832D+00  0.2445861070D+00
      0.1576200000D+01  0.1221561761D+01  0.8539553735D+00
 SP   1 1.00       0.000000000000
      0.3736840000D+00  0.1000000000D+01  0.1000000000D+01
 ****
      2 0
 S   3 1.00       0.000000000000
      0.1722560000D+03  0.6176690738D-01
      0.2591090000D+02  0.3587940429D+00
      0.5533350000D+01  0.7007130837D+00
 SP   2 1.00       0.000000000000
      0.3664980000D+01 -0.3958951621D+00  0.2364599466D+00
      0.7705450000D+00  0.1215834356D+01  0.8606188057D+00
 SP   1 1.00       0.000000000000
      0.1958570000D+00  0.1000000000D+01  0.1000000000D+01
 ****
      3 0
 S   3 1.00       0.000000000000
      0.1210620000D+04  0.6500708187D-01
      0.1827470000D+03  0.3820398935D+00
      0.3966730000D+02  0.6765448113D+00
 SP   3 1.00       0.000000000000
      0.5222360000D+02 -0.1003099399D+00  0.1096459702D+00
      0.1196290000D+02  0.6508766099D-01  0.4576488757D+00
      0.3289110000D+01  0.9814544117D+00  0.6042608359D+00
 SP   2 1.00       0.000000000000
      0.1223840000D+01 -0.2860888537D+00  0.1647769947D+00
      0.4573030000D+00  0.1228059372D+01  0.8708549722D+00
 SP   1 1.00       0.000000000000
      0.1422690000D+00  0.1000000000D+01  0.1000000000D+01
 ****

 There are    17 symmetry adapted cartesian basis functions of A1  symmetry.
 There are     0 symmetry adapted cartesian basis functions of A2  symmetry.
 There are     7 symmetry adapted cartesian basis functions of B1  symmetry.
 There are     7 symmetry adapted cartesian basis functions of B2  symmetry.
 There are    17 symmetry adapted basis functions of A1  symmetry.
 There are     0 symmetry adapted basis functions of A2  symmetry.
 There are     7 symmetry adapted basis functions of B1  symmetry.
 There are     7 symmetry adapted basis functions of B2  symmetry.
    31 basis functions,    57 primitive gaussians,    31 cartesian basis functions
    15 alpha electrons       15 beta electrons
       nuclear repulsion energy       110.0688598714 Hartrees.



 Warning!  S  atom    3 may be hypervalent but has no d functions.



 IExCor=    0 DFT=F Ex=HF Corr=None ExCW=0 ScaHFX=  1.000000
 ScaDFX=  1.000000  1.000000  1.000000  1.000000 ScalE2=  1.000000  1.000000
 IRadAn=      5 IRanWt=     -1 IRanGd=            0 ICorTp=0 IEmpDi=  4
 NAtoms=    3 NActive=    3 NUniq=    3 SFac= 1.00D+00 NAtFMM=   60 NAOKFM=F Big=F
 Integral buffers will be    131072 words long.
 Raffenetti 1 integral format.
 Two-electron integral symmetry is turned on.
 Leave Link  301 at Wed May 11 08:21:36 2022, MaxMem=   524288000 cpu:               0.3 elap:               0.1
 (Enter /usr/local/gaussian/2016-C.01/g16/l302.exe)
 NPDir=0 NMtPBC=     1 NCelOv=     1 NCel=       1 NClECP=     1 NCelD=      1
         NCelK=      1 NCelE2=     1 NClLst=     1 CellRange=     0.0.
 One-electron integrals computed using PRISM.
 One-electron integral symmetry used in STVInt
 NBasis=    31 RedAO= T EigKep=  5.94D-03  NBF=    17     0     7     7
 NBsUse=    31 1.00D-06 EigRej= -1.00D+00 NBFU=    17     0     7     7
 Leave Link  302 at Wed May 11 08:21:37 2022, MaxMem=   524288000 cpu:               0.4 elap:               0.2
 (Enter /usr/local/gaussian/2016-C.01/g16/l303.exe)
 DipDrv:  MaxL=1.
 Leave Link  303 at Wed May 11 08:21:37 2022, MaxMem=   524288000 cpu:               0.1 elap:               0.1
 (Enter /usr/local/gaussian/2016-C.01/g16/l401.exe)
 ExpMin= 1.42D-01 ExpMax= 1.21D+03 ExpMxC= 1.21D+03 IAcc=3 IRadAn=         5 AccDes= 0.00D+00
 Harris functional with IExCor=  205 and IRadAn=       5 diagonalized for initial guess.
 HarFok:  IExCor=  205 AccDes= 0.00D+00 IRadAn=         5 IDoV= 1 UseB2=F ITyADJ=14
 ICtDFT=  3500011 ScaDFX=  1.000000  1.000000  1.000000  1.000000
 FoFCou: FMM=F IPFlag=           0 FMFlag=      100000 FMFlg1=           0
         NFxFlg=           0 DoJE=T BraDBF=F KetDBF=T FulRan=T
         wScrn=  0.000000 ICntrl=       500 IOpCl=  0 I1Cent=   200000004 NGrid=           0
         NMat0=    1 NMatS0=      1 NMatT0=    0 NMatD0=    1 NMtDS0=    0 NMtDT0=    0
 Petite list used in FoFCou.
 Harris En= -506.338699387874    
 JPrj=0 DoOrth=F DoCkMO=F.
 Initial guess orbital symmetries:
       Occupied  (SG) (SG) (SG) (SG) (SG) (PI) (PI) (SG) (SG) (PI)
                 (PI) (SG) (SG) (PI) (PI)
       Virtual   (PI) (PI) (SG) (SG) (PI) (PI) (SG) (PI) (PI) (SG)
                 (SG) (PI) (PI) (SG) (SG) (SG)
 The electronic state of the initial guess is 1-SG.
 Leave Link  401 at Wed May 11 08:21:37 2022, MaxMem=   524288000 cpu:               0.8 elap:               0.3
 (Enter /usr/local/gaussian/2016-C.01/g16/l502.exe)
 Keep R1 ints in memory in symmetry-blocked form, NReq=930827.
 FoFCou: FMM=F IPFlag=           0 FMFlag=           0 FMFlg1=           0
         NFxFlg=           0 DoJE=F BraDBF=F KetDBF=F FulRan=T
         wScrn=  0.000000 ICntrl=       600 IOpCl=  0 I1Cent=           0 NGrid=           0
         NMat0=    1 NMatS0=    496 NMatT0=    0 NMatD0=    1 NMtDS0=    0 NMtDT0=    0
 Petite list used in FoFCou.
 Closed shell SCF:
 Using DIIS extrapolation, IDIIS=  1040.
 NGot=   524288000 LenX=   524245594 LenY=   524244192
 Requested convergence on RMS density matrix=1.00D-08 within 128 cycles.
 Requested convergence on MAX density matrix=1.00D-06.
 Requested convergence on             energy=1.00D-06.
 No special actions if energy rises.

 Cycle   1  Pass 1  IDiag  1:
 E= -506.275762147749    
 DIIS: error= 8.86D-02 at cycle   1 NSaved=   1.
 NSaved= 1 IEnMin= 1 EnMin= -506.275762147749     IErMin= 1 ErrMin= 8.86D-02
 ErrMax= 8.86D-02  0.00D+00 EMaxC= 1.00D-01 BMatC= 3.43D-01 BMatP= 3.43D-01
 IDIUse=3 WtCom= 1.14D-01 WtEn= 8.86D-01
 Coeff-Com:  0.100D+01
 Coeff-En:   0.100D+01
 Coeff:      0.100D+01
 Gap=     0.578 Goal=   None    Shift=    0.000
 GapD=    0.578 DampG=2.000 DampE=0.500 DampFc=1.0000 IDamp=-1.
 RMSDP=2.58D-02 MaxDP=1.61D-01              OVMax= 1.97D-01

 Cycle   2  Pass 1  IDiag  1:
 E= -506.454393764268     Delta-E=       -0.178631616518 Rises=F Damp=F
 DIIS: error= 4.47D-02 at cycle   2 NSaved=   2.
 NSaved= 2 IEnMin= 2 EnMin= -506.454393764268     IErMin= 2 ErrMin= 4.47D-02
 ErrMax= 4.47D-02  0.00D+00 EMaxC= 1.00D-01 BMatC= 1.16D-01 BMatP= 3.43D-01
 IDIUse=3 WtCom= 5.53D-01 WtEn= 4.47D-01
 Coeff-Com:  0.348D+00 0.652D+00
 Coeff-En:   0.102D+00 0.898D+00
 Coeff:      0.238D+00 0.762D+00
 Gap=     0.727 Goal=   None    Shift=    0.000
 RMSDP=1.78D-02 MaxDP=1.32D-01 DE=-1.79D-01 OVMax= 1.18D-01

 Cycle   3  Pass 1  IDiag  1:
 E= -506.535334429512     Delta-E=       -0.080940665244 Rises=F Damp=F
 DIIS: error= 2.04D-02 at cycle   3 NSaved=   3.
 NSaved= 3 IEnMin= 3 EnMin= -506.535334429512     IErMin= 3 ErrMin= 2.04D-02
 ErrMax= 2.04D-02  0.00D+00 EMaxC= 1.00D-01 BMatC= 1.41D-02 BMatP= 1.16D-01
 IDIUse=3 WtCom= 7.96D-01 WtEn= 2.04D-01
 Coeff-Com:  0.280D-01 0.263D+00 0.709D+00
 Coeff-En:   0.000D+00 0.000D+00 0.100D+01
 Coeff:      0.223D-01 0.210D+00 0.768D+00
 Gap=     0.672 Goal=   None    Shift=    0.000
 RMSDP=4.30D-03 MaxDP=2.18D-02 DE=-8.09D-02 OVMax= 3.90D-02

 Cycle   4  Pass 1  IDiag  1:
 E= -506.545147468770     Delta-E=       -0.009813039258 Rises=F Damp=F
 DIIS: error= 4.78D-03 at cycle   4 NSaved=   4.
 NSaved= 4 IEnMin= 4 EnMin= -506.545147468770     IErMin= 4 ErrMin= 4.78D-03
 ErrMax= 4.78D-03  0.00D+00 EMaxC= 1.00D-01 BMatC= 9.59D-04 BMatP= 1.41D-02
 IDIUse=3 WtCom= 9.52D-01 WtEn= 4.78D-02
 Coeff-Com: -0.179D-01-0.128D-01 0.221D+00 0.809D+00
 Coeff-En:   0.000D+00 0.000D+00 0.000D+00 0.100D+01
 Coeff:     -0.170D-01-0.122D-01 0.211D+00 0.819D+00
 Gap=     0.675 Goal=   None    Shift=    0.000
 RMSDP=1.25D-03 MaxDP=1.29D-02 DE=-9.81D-03 OVMax= 5.43D-03

 Cycle   5  Pass 1  IDiag  1:
 E= -506.545835053083     Delta-E=       -0.000687584314 Rises=F Damp=F
 DIIS: error= 5.42D-04 at cycle   5 NSaved=   5.
 NSaved= 5 IEnMin= 5 EnMin= -506.545835053083     IErMin= 5 ErrMin= 5.42D-04
 ErrMax= 5.42D-04  0.00D+00 EMaxC= 1.00D-01 BMatC= 8.92D-06 BMatP= 9.59D-04
 IDIUse=3 WtCom= 9.95D-01 WtEn= 5.42D-03
 Coeff-Com:  0.293D-02-0.112D-01-0.678D-01-0.840D-01 0.116D+01
 Coeff-En:   0.000D+00 0.000D+00 0.000D+00 0.000D+00 0.100D+01
 Coeff:      0.292D-02-0.112D-01-0.674D-01-0.835D-01 0.116D+01
 Gap=     0.675 Goal=   None    Shift=    0.000
 RMSDP=4.00D-04 MaxDP=5.93D-03 DE=-6.88D-04 OVMax= 5.31D-04

 Cycle   6  Pass 1  IDiag  1:
 E= -506.545845846226     Delta-E=       -0.000010793143 Rises=F Damp=F
 DIIS: error= 6.84D-05 at cycle   6 NSaved=   6.
 NSaved= 6 IEnMin= 6 EnMin= -506.545845846226     IErMin= 6 ErrMin= 6.84D-05
 ErrMax= 6.84D-05  0.00D+00 EMaxC= 1.00D-01 BMatC= 1.41D-07 BMatP= 8.92D-06
 IDIUse=1 WtCom= 1.00D+00 WtEn= 0.00D+00
 Coeff-Com:  0.250D-03-0.176D-03-0.414D-02-0.151D-01-0.284D-01 0.105D+01
 Coeff:      0.250D-03-0.176D-03-0.414D-02-0.151D-01-0.284D-01 0.105D+01
 Gap=     0.675 Goal=   None    Shift=    0.000
 RMSDP=6.86D-05 MaxDP=1.00D-03 DE=-1.08D-05 OVMax= 1.20D-04

 Cycle   7  Pass 1  IDiag  1:
 E= -506.545846138703     Delta-E=       -0.000000292477 Rises=F Damp=F
 DIIS: error= 1.71D-05 at cycle   7 NSaved=   7.
 NSaved= 7 IEnMin= 7 EnMin= -506.545846138703     IErMin= 7 ErrMin= 1.71D-05
 ErrMax= 1.71D-05  0.00D+00 EMaxC= 1.00D-01 BMatC= 1.04D-08 BMatP= 1.41D-07
 IDIUse=1 WtCom= 1.00D+00 WtEn= 0.00D+00
 Coeff-Com: -0.130D-03 0.584D-03 0.373D-02 0.353D-02-0.577D-01-0.836D-01
 Coeff-Com:  0.113D+01
 Coeff:     -0.130D-03 0.584D-03 0.373D-02 0.353D-02-0.577D-01-0.836D-01
 Coeff:      0.113D+01
 Gap=     0.675 Goal=   None    Shift=    0.000
 RMSDP=2.52D-05 MaxDP=3.83D-04 DE=-2.92D-07 OVMax= 2.44D-05

 Cycle   8  Pass 1  IDiag  1:
 E= -506.545846158024     Delta-E=       -0.000000019321 Rises=F Damp=F
 DIIS: error= 1.46D-06 at cycle   8 NSaved=   8.
 NSaved= 8 IEnMin= 8 EnMin= -506.545846158024     IErMin= 8 ErrMin= 1.46D-06
 ErrMax= 1.46D-06  0.00D+00 EMaxC= 1.00D-01 BMatC= 9.39D-11 BMatP= 1.04D-08
 IDIUse=1 WtCom= 1.00D+00 WtEn= 0.00D+00
 Coeff-Com:  0.167D-04-0.783D-04-0.518D-03-0.333D-03 0.102D-01-0.504D-03
 Coeff-Com: -0.206D+00 0.120D+01
 Coeff:      0.167D-04-0.783D-04-0.518D-03-0.333D-03 0.102D-01-0.504D-03
 Coeff:     -0.206D+00 0.120D+01
 Gap=     0.675 Goal=   None    Shift=    0.000
 RMSDP=2.16D-06 MaxDP=2.59D-05 DE=-1.93D-08 OVMax= 3.75D-06

 Cycle   9  Pass 1  IDiag  1:
 E= -506.545846158231     Delta-E=       -0.000000000208 Rises=F Damp=F
 DIIS: error= 3.72D-07 at cycle   9 NSaved=   9.
 NSaved= 9 IEnMin= 9 EnMin= -506.545846158231     IErMin= 9 ErrMin= 3.72D-07
 ErrMax= 3.72D-07  0.00D+00 EMaxC= 1.00D-01 BMatC= 3.65D-12 BMatP= 9.39D-11
 IDIUse=1 WtCom= 1.00D+00 WtEn= 0.00D+00
 Coeff-Com: -0.225D-05 0.767D-05 0.686D-04-0.324D-05-0.154D-02 0.149D-02
 Coeff-Com:  0.291D-01-0.256D+00 0.123D+01
 Coeff:     -0.225D-05 0.767D-05 0.686D-04-0.324D-05-0.154D-02 0.149D-02
 Coeff:      0.291D-01-0.256D+00 0.123D+01
 Gap=     0.675 Goal=   None    Shift=    0.000
 RMSDP=2.36D-07 MaxDP=2.53D-06 DE=-2.08D-10 OVMax= 1.44D-07

 Cycle  10  Pass 1  IDiag  1:
 E= -506.545846158236     Delta-E=       -0.000000000004 Rises=F Damp=F
 DIIS: error= 5.78D-08 at cycle  10 NSaved=  10.
 NSaved=10 IEnMin=10 EnMin= -506.545846158236     IErMin=10 ErrMin= 5.78D-08
 ErrMax= 5.78D-08  0.00D+00 EMaxC= 1.00D-01 BMatC= 3.79D-14 BMatP= 3.65D-12
 IDIUse=1 WtCom= 1.00D+00 WtEn= 0.00D+00
 Coeff-Com:  0.128D-06 0.228D-07-0.405D-05 0.498D-05 0.138D-03-0.304D-03
 Coeff-Com: -0.191D-02 0.283D-01-0.249D+00 0.122D+01
 Coeff:      0.128D-06 0.228D-07-0.405D-05 0.498D-05 0.138D-03-0.304D-03
 Coeff:     -0.191D-02 0.283D-01-0.249D+00 0.122D+01
 Gap=     0.675 Goal=   None    Shift=    0.000
 RMSDP=1.27D-08 MaxDP=1.25D-07 DE=-4.32D-12 OVMax= 7.02D-08

 Cycle  11  Pass 1  IDiag  1:
 E= -506.545846158235     Delta-E=        0.000000000001 Rises=F Damp=F
 DIIS: error= 1.26D-08 at cycle  11 NSaved=  11.
 NSaved=11 IEnMin=10 EnMin= -506.545846158236     IErMin=11 ErrMin= 1.26D-08
 ErrMax= 1.26D-08  0.00D+00 EMaxC= 1.00D-01 BMatC= 1.81D-15 BMatP= 3.79D-14
 IDIUse=1 WtCom= 1.00D+00 WtEn= 0.00D+00
 Coeff-Com: -0.105D-07-0.819D-07 0.267D-06-0.914D-06-0.894D-05 0.445D-04
 Coeff-Com: -0.616D-04-0.128D-02 0.280D-01-0.278D+00 0.125D+01
 Coeff:     -0.105D-07-0.819D-07 0.267D-06-0.914D-06-0.894D-05 0.445D-04
 Coeff:     -0.616D-04-0.128D-02 0.280D-01-0.278D+00 0.125D+01
 Gap=     0.675 Goal=   None    Shift=    0.000
 RMSDP=2.68D-09 MaxDP=2.59D-08 DE= 6.82D-13 OVMax= 4.20D-09

 SCF Done:  E(RHF) =  -506.545846158     A.U. after   11 cycles
            NFock= 11  Conv=0.27D-08     -V/T= 1.9870
 KE= 5.132289936324D+02 PE=-1.429355810456D+03 EE= 2.995121107935D+02
 Leave Link  502 at Wed May 11 08:21:37 2022, MaxMem=   524288000 cpu:               0.6 elap:               0.2
 (Enter /usr/local/gaussian/2016-C.01/g16/l801.exe)
 ExpMin= 1.42D-01 ExpMax= 1.21D+03 ExpMxC= 1.21D+03 IAcc=3 IRadAn=         5 AccDes= 0.00D+00
 HarFok:  IExCor=  205 AccDes= 0.00D+00 IRadAn=         5 IDoV=-2 UseB2=F ITyADJ=14
 ICtDFT= 12500011 ScaDFX=  1.000000  1.000000  1.000000  1.000000
 Largest valence mixing into a core orbital is  4.83D-04
 Largest core mixing into a valence orbital is  1.61D-04
 Range of M.O.s used for correlation:     8    31
 NBasis=    31 NAE=    15 NBE=    15 NFC=     7 NFV=     0
 NROrb=     24 NOA=     8 NOB=     8 NVA=    16 NVB=    16
 Leave Link  801 at Wed May 11 08:21:38 2022, MaxMem=   524288000 cpu:               0.4 elap:               0.2
 (Enter /usr/local/gaussian/2016-C.01/g16/l906.exe)
 Frozen-core derivative calculation, NFC=   7 NFV=   0.
 FulOut=F Deriv=T AODrv=T NAtomX=     3
   MMem=        7536  MDisk=           8 MDiskD=           8
  W3Min=       14415 MinDsk=       73064 NBas6D=          31
 NBas2D=         538    NTT=         496    LW2=     2000000
    MDV=   524273876 MDiskM=      175495 NBas2p=         537
 Fully direct method using O(ONN) memory.
 IMap=   1   2   3   4   5   6   7   8   9  10  11  12  13  14  15
 JobTyp=1 Pass  1:  I=   8 to  15 NPSUse=  4 ParTrn=T ParDer=T DoDerP=T.
 Spin components of T(2) and E(2):
     alpha-alpha T2 =       0.1196960118D-01 E2=     -0.3435964377D-01
     alpha-beta  T2 =       0.6096799932D-01 E2=     -0.1764764038D+00
     beta-beta   T2 =       0.1196960118D-01 E2=     -0.3435964377D-01
 The integrals were generated   1 times.
 ANorm=    0.1041588787D+01
 E2 =    -0.2451956913D+00 EUMP2 =    -0.50679104184954D+03
 Leave Link  906 at Wed May 11 08:21:38 2022, MaxMem=   524288000 cpu:               0.4 elap:               0.2
 (Enter /usr/local/gaussian/2016-C.01/g16/l1002.exe)
 Minotr:  Closed shell wavefunction.
          Computing MP2/KS-MP2 derivatives.
          Using Z-Vector for PSCF gradient.
          Skipping F1 and S1 gradient terms here.
          IDoAtm=111
          Frozen-core window.
          Direct CPHF calculation.
          Differentiating once with respect to electric field.
                with respect to dipole field.
          Differentiating once with respect to nuclear coordinates.
          Using symmetry in CPHF.
          Requested convergence is 1.0D-10 RMS, and 1.0D-09 maximum.
          NewPWx=F KeepS1=T KeepF1=T KeepIn=T MapXYZ=F SortEE=F KeepMc=T.
 Keep R1 ints in memory in symmetry-blocked form, NReq=931393.
 FoFCou: FMM=F IPFlag=           0 FMFlag=           0 FMFlg1=           0
         NFxFlg=           0 DoJE=F BraDBF=F KetDBF=F FulRan=T
         wScrn=  0.000000 ICntrl=       600 IOpCl=  0 I1Cent=           0 NGrid=           0
         NMat0=    1 NMatS0=    496 NMatT0=    0 NMatD0=    1 NMtDS0=    0 NMtDT0=    0
 Petite list used in FoFCou.
          MDV=     524288000 using IRadAn=       5.
          Solving linear equations separately, MaxMat=       0.
          There are     1 degrees of freedom in the 1st order CPHF.  IDoFFX=0 NUNeed=     1.
 LinEq1:  Iter=  0 NonCon=     1 RMS=1.08D-02 Max=8.16D-02 NDo=     1
 AX will form     1 AO Fock derivatives at one time.
 LinEq1:  Iter=  1 NonCon=     1 RMS=2.34D-03 Max=1.25D-02 NDo=     1
 LinEq1:  Iter=  2 NonCon=     1 RMS=8.34D-04 Max=4.75D-03 NDo=     1
 LinEq1:  Iter=  3 NonCon=     1 RMS=3.83D-04 Max=2.50D-03 NDo=     1
 LinEq1:  Iter=  4 NonCon=     1 RMS=5.04D-05 Max=3.34D-04 NDo=     1
 LinEq1:  Iter=  5 NonCon=     1 RMS=7.42D-06 Max=4.36D-05 NDo=     1
 LinEq1:  Iter=  6 NonCon=     1 RMS=1.09D-06 Max=6.42D-06 NDo=     1
 LinEq1:  Iter=  7 NonCon=     1 RMS=1.09D-07 Max=5.02D-07 NDo=     1
 LinEq1:  Iter=  8 NonCon=     1 RMS=8.98D-09 Max=4.42D-08 NDo=     1
 LinEq1:  Iter=  9 NonCon=     1 RMS=8.66D-10 Max=5.09D-09 NDo=     1
 LinEq1:  Iter= 10 NonCon=     0 RMS=7.74D-11 Max=4.32D-10 NDo=     1
 Linear equations converged to 1.000D-10 1.000D-09 after    10 iterations.
 End of Minotr F.D. properties file   721 does not exist.
 End of Minotr F.D. properties file   722 does not exist.
 End of Minotr F.D. properties file   788 does not exist.
 Leave Link 1002 at Wed May 11 08:21:38 2022, MaxMem=   524288000 cpu:               1.3 elap:               0.4
 (Enter /usr/local/gaussian/2016-C.01/g16/l601.exe)
 Copying SCF densities to generalized density rwf, IOpCl= 0 IROHF=0.

 **********************************************************************

            Population analysis using the SCF Density.

 **********************************************************************

 Orbital symmetries:
       Occupied  (SG) (SG) (SG) (SG) (SG) (PI) (PI) (SG) (SG) (PI)
                 (PI) (SG) (SG) (PI) (PI)
       Virtual   (PI) (PI) (SG) (SG) (PI) (PI) (SG) (PI) (PI) (SG)
                 (SG) (PI) (PI) (SG) (SG) (SG)
 The electronic state is 1-SG.
 Alpha  occ. eigenvalues --  -91.27458 -20.46356 -11.33740  -8.97153  -6.66296
 Alpha  occ. eigenvalues --   -6.62125  -6.62125  -1.57797  -1.28435  -0.79838
 Alpha  occ. eigenvalues --   -0.79838  -0.70735  -0.58545  -0.42344  -0.42344
 Alpha virt. eigenvalues --    0.25189   0.25189   0.27439   0.50337   0.65064
 Alpha virt. eigenvalues --    0.65064   0.70580   0.95852   0.95852   0.99897
 Alpha virt. eigenvalues --    1.50085   1.94786   1.94786   1.96822   2.27051
 Alpha virt. eigenvalues --    3.74824
     Molecular Orbital Coefficients:
                           1         2         3         4         5
                           O         O         O         O         O
     Eigenvalues --   -91.27458 -20.46356 -11.33740  -8.97153  -6.66296
   1 1   O  1S         -0.00003   0.98390  -0.00126   0.00039   0.00004
   2        2S         -0.00035   0.10369   0.00092   0.00317   0.00000
   3        2PX         0.00000   0.00000   0.00000   0.00000   0.00000
   4        2PY         0.00000   0.00000   0.00000   0.00000   0.00000
   5        2PZ         0.00025   0.00472  -0.00068  -0.00049  -0.00149
   6        3S          0.00333  -0.07194  -0.00773  -0.02126  -0.00488
   7        3PX         0.00000   0.00000   0.00000   0.00000   0.00000
   8        3PY         0.00000   0.00000   0.00000   0.00000   0.00000
   9        3PZ        -0.00084  -0.01661  -0.003 (Enter /usr/local/gaussian/2016-C.01/g16/l804.exe)
 Frozen-core window:  NFC=   7 NFV=   0.
 Closed-shell transformation, MDV=   524288000 ITran=4 ISComp=1.
 Semi-Direct transformation.
 ModeAB=           2 MOrb=            15 LenV=     524155523
 LASXX=       129765 LTotXX=      129765 LenRXX=      129765
 LTotAB=      149760 MaxLAS=      230640 LenRXY=      230640
 NonZer=      259530 LenScr=      785920 LnRSAI=           0
 LnScr1=           0 LExtra=      415432 Total=      1561757
 MaxDsk=228170137600 SrtSym=           F ITran=            4
 DoSDTr:  NPSUse=  4
 JobTyp=0 Pass  1:  I=   1 to  15.
 (rs|ai) integrals will be sorted in core.
 Complete sort for first half transformation.
 First half transformation complete.
 Begin second half transformation for I=  10.
 Begin second half transformation for I=  10.
 Complete sort for second half transformation.
 Second half transformation complete.
 Spin components of T(2) and E(2):
     alpha-alpha T2 =       0.1196960118D-01 E2=     -0.3435964377D-01
     alpha-beta  T2 =       0.6096799932D-01 E2=     -0.1764764038D+00
     beta-beta   T2 =       0.1196960118D-01 E2=     -0.3435964377D-01
 ANorm=    0.1473028989D+01
 E2 =    -0.2451956913D+00 EUMP2 =    -0.50679104184954D+03
 Leave Link  804 at Wed May 11 08:21:46 2022, MaxMem=   524288000 cpu:              28.1 elap:               9.5
 (Enter /usr/local/gaussian/2016-C.01/g16/l1002.exe)
 Minotr:  Closed shell wavefunction.
          Computing MP2/KS-MP2 derivatives.
          Using Z-Vector for PSCF gradient.
          Skipping F1 and S1 gradient terms here.
          IDoAtm=111
          Frozen-core window.
          Using MO integrals in the linear equations.
          Forming densities via direct SCF.
          Differentiating once with respect to electric field.
                with respect to dipole field.
          Differentiating once with respect to nuclear coordinates.
          Using symmetry in CPHF.
          Requested convergence is 1.0D-10 RMS, and 1.0D-09 maximum.
          NewPWx=F KeepS1=T KeepF1=T KeepIn=T MapXYZ=F SortEE=F KeepMc=T.
          MDV=     524288000 using IRadAn=       5.
          Solving linear equations separately, MaxMat=       0.
          There are     1 degrees of freedom in the 1st order CPHF.  IDoFFX=0 NUNeed=     1.
 FoFJK:  IHMeth= 1 ICntrl=       0 DoSepK=F KAlg= 0 I1Cent=           0 FoldK=F
 IRaf=         0 NMat=       1 IRICut=       1 DoRegI=T DoRafI=F ISym2E= 0 IDoP0=0 IntGTp=1.
 FoFCou: FMM=F IPFlag=           0 FMFlag=      100000 FMFlg1=           0
         NFxFlg=           0 DoJE=F BraDBF=F KetDBF=F FulRan=T
         wScrn=  0.000000 ICntrl=         0 IOpCl=  0 I1Cent=           0 NGrid=           0
         NMat0=    1 NMatS0=      1 NMatT0=    0 NMatD0=    1 NMtDS0=    0 NMtDT0=    0
 Symmetry not used in FoFCou.
 LinEq1:  Iter=  0 NonCon=     1 RMS=1.08D-02 Max=8.16D-02 NDo=     1
 LinEq1:  Iter=  1 NonCon=     1 RMS=2.34D-03 Max=1.25D-02 NDo=     1
 LinEq1:  Iter=  2 NonCon=     1 RMS=8.34D-04 Max=4.75D-03 NDo=     1
 LinEq1:  Iter=  3 NonCon=     1 RMS=3.83D-04 Max=2.50D-03 NDo=     1
 LinEq1:  Iter=  4 NonCon=     1 RMS=5.04D-05 Max=3.34D-04 NDo=     1
 LinEq1:  Iter=  5 NonCon=     1 RMS=7.42D-06 Max=4.36D-05 NDo=     1
 LinEq1:  Iter=  6 NonCon=     1 RMS=1.09D-06 Max=6.42D-06 NDo=     1
 LinEq1:  Iter=  7 NonCon=     1 RMS=1.09D-07 Max=5.02D-07 NDo=     1
 LinEq1:  Iter=  8 NonCon=     1 RMS=8.98D-09 Max=4.42D-08 NDo=     1
 LinEq1:  Iter=  9 NonCon=     1 RMS=8.66D-10 Max=5.09D-09 NDo=     1
 LinEq1:  Iter= 10 NonCon=     0 RMS=7.74D-11 Max=4.32D-10 NDo=     1
 Linear equations converged to 1.000D-10 1.000D-09 after    10 iterations.
 End of Minotr F.D. properties file   721 does not exist.
 End of Minotr F.D. properties file   722 does not exist.
 End of Minotr F.D. properties file   788 does not exist.
 Leave Link 1002 at Wed May 11 08:21:48 2022, MaxMem=   524288000 cpu:               4.8 elap:               1.7
 (Enter /usr/local/gaussian/2016-C.01/g16/l1102.exe)
 Use density number 2.
 Symmetrizing basis deriv contribution to polar:
 IMax=3 JMax=2 DiffMx= 0.00D+00
 Leave Link 1102 at Wed May 11 08:21:48 2022, MaxMem=   524288000 cpu:               0.4 elap:               0.2
 (Enter /usr/local/gaussian/2016-C.01/g16/l1110.exe)
 Forming Gx(P) for generalized density number  2 NAtomX=     3.
 Integral derivatives from FoFJK, PRISM(SPDF).
 Do as many integral derivatives as possible in FoFJK.
 G2DrvN: MDV=     524287567.
 G2DrvN: will do     4 centers at a time, making    1 passes.
 Calling FoFCou, ICntrl=  3107 FMM=F I1Cent=   0 AccDes= 0.00D+00.
 FoFJK:  IHMeth= 1 ICntrl=    3107 DoSepK=F KAlg= 0 I1Cent=           0 FoldK=F
 IRaf=         0 NMat=       1 IRICut=       1 DoRegI=T DoRafI=F ISym2E= 1 IDoP0=0 IntGTp=1.
 FoFCou: FMM=F IPFlag=           0 FMFlag=      100000 FMFlg1=           0
         NFxFlg=           0 DoJE=F BraDBF=F KetDBF=F FulRan=T
         wScrn=  0.000000 ICntrl=      3107 IOpCl=  0 I1Cent=           0 NGrid=           0
         NMat0=    1 NMatS0=      1 NMatT0=    0 NMatD0=    1 NMtDS0=    0 NMtDT0=    0
 Petite list used in FoFCou.
 End of G2Drv F.D. properties file   721 does not exist.
 End of G2Drv F.D. properties file   722 does not exist.
 End of G2Drv F.D. properties file   788 does not exist.
 Leave Link 1110 at Wed May 11 08:21:49 2022, MaxMem=   524288000 cpu:               1.5 elap:               0.5
 (Enter /usr/local/gaussian/2016-C.01/g16/l1112.exe)
 MP22nd: MDV=     524288000
 This link is doing NAtomX=     3 total of    12 degrees of freedom.
 Using ON3 I/O method in MakUI.
 Frozen-core window:  NFC=   7 NFV=   0.
 Using Ix for Sx.
 Use MO integrals over full window.
 Using OV2 memory method for fx*t*t/D, MaxI=    15 DoOO2=F NP=   4.
 R2 and R3 integrals will be kept in memory, NReq=     1046512.
 FoFCou: FMM=F IPFlag=           0 FMFlag=           0 FMFlg1=           0
         NFxFlg=           0 DoJE=F BraDBF=F KetDBF=F FulRan=T
         wScrn=  0.000000 ICntrl=       600 IOpCl=  0 I1Cent=           0 NGrid=           0
         NMat0=    1 NMatS0=      1 NMatT0=    0 NMatD0=    1 NMtDS0=    0 NMtDT0=    0
 Symmetry not used in FoFCou.
 DD1Dir will call FoFMem   1 times, MxPair=       240
 NAB=   120 NAA=     0 NBB=     0.
 Symmetry is being used.
 FoFJK:  IHMeth= 1 ICntrl=       0 DoSepK=F KAlg= 0 I1Cent=           0 FoldK=F
 IRaf=         0 NMat=      12 IRICut=      30 DoRegI=T DoRafI=T ISym2E= 2 IDoP0=0 IntGTp=1.
 Discarding MO integrals.
 Leave Link 1112 at Wed May 11 08:21:52 2022, MaxMem=   524288000 cpu:               9.0 elap:               3.1
 (Enter /usr/local/gaussian/2016-C.01/g16/l601.exe)
 Copying SCF densities to generalized density rwf, IOpCl= 0 IROHF=0.

 **********************************************************************

            Population analysis using the SCF Density.

 **********************************************************************

 Orbital symmetries:
       Occupied  (SG) (SG) (SG) (SG) (SG) (PI) (PI) (SG) (SG) (PI)
                 (PI) (SG) (SG) (PI) (PI)
       Virtual   (PI) (PI) (SG) (SG) (PI) (PI) (SG) (PI) (PI) (SG)
                 (SG) (PI) (PI) (SG) (SG) (SG)
 The electronic state is 1-SG.
 Alpha  occ. eigenvalues --  -91.27458 -20.46356 -11.33740  -8.97153  -6.66296
 Alpha  occ. eigenvalues --   -6.62125  -6.62125  -1.57797  -1.28435  -0.79838
 Alpha  occ. eigenvalues --   -0.79838  -0.70735  -0.58545  -0.42344  -0.42344
 Alpha virt. eigenvalues --    0.25189   0.25189   0.27439   0.50337   0.65064
 Alpha virt. eigenvalues --    0.65064   0.70580   0.95852   0.95852   0.99897
 Alpha virt. eigenvalues --    1.50085   1.94786   1.94786   1.96822   2.27051
 Alpha virt. eigenvalues --    3.74824
     Molecular Orbital Coefficients:
                           1         2         3         4         5
                           O         O         O         O         O
     Eigenvalues --   -91.27458 -20.46356 -11.33740  -8.97153  -6.66296
   1 1   O  1S         -0.00003   0.98390  -0.00126   0.00039   0.00004
   2        2S         -0.00035   0.10369   0.00092   0.00317   0.00000
   3        2PX         0.00000   0.00000   0.00000   0.00000   0.00000
   4        2PY         0.00000   0.00000   0.00000   0.00000   0.00000
   5        2PZ         0.00025   0.00472  -0.00068  -0.00049  -0.00149
   6        3S          0.00333  -0.07194  -0.00773  -0.02126  -0.00488
   7        3PX         0.00000   0.00000   0.00000   0.00000   0.00000
   8        3PY         0.00000   0.00000   0.00000   0.00000   0.00000
   9        3PZ        -0.00084  -0.01661  -0.00344   0.00684  -0.01276
  10 2   C  1S          0.00064   0.00170   0.98634  -0.01862   0.02034
  11        2S          0.00248   0.00422   0.11423  -0.00310  -0.00692
  12        2PX         0.00000   0.00000   0.00000   0.00000   0.00000
  13        2PY         0.00000   0.00000   0.00000   0.00000   0.00000
  14        2PZ         0.00174  -0.00190   0.00945   0.00264  -0.02380
  15        3S          0.00768   0.02571  -0.11169  -0.07569   0.09388
  16        3PX         0.00000   0.00000   0.00000   0.00000   0.00000
  17        3PY         0.00000   0.00000   0.00000   0.00000   0.00000
  18        3PZ         0.00880  -0.03289  -0.03698  -0.06723   0.04848
  19 3   S  1S          0.98635   0.00004  -0.00186  -0.30055  -0.01268
  20        2S          0.05155   0.00024   0.00519   0.98503   0.04354
  21        2PX         0.00000   0.00000   0.00000   0.00000   0.00000
  22        2PY         0.00000   0.00000   0.00000   0.00000   0.00000
  23        2PZ        -0.00072   0.00009  -0.00167  -0.03307   0.96773
  24        3S         -0.02195   0.00887   0.00280   0.16126  -0.01572
  25        3PX         0.00000   0.00000   0.00000   0.00000   0.00000
  26        3PY         0.00000   0.00000   0.00000   0.00000   0.00000
  27        3PZ         0.00442  -0.00046   0.00532  -0.02726   0.09349
  28        4S          0.00015   0.00348   0.07425   0.02074  -0.07289
  29        4PX         0.00000   0.00000   0.00000   0.00000   0.00000
  30        4PY         0.00000   0.00000   0.00000   0.00000   0.00000
  31        4PZ         0.00159   0.00282  -0.03583  -0.01915   0.00575
                           6         7         8         9        10
                           O         O         O         O         O
     Eigenvalues --    -6.62125  -6.62125  -1.57797  -1.28435  -0.79838
   1 1   O  1S          0.00000   0.00000  -0.20824   0.06399   0.00000
   2        2S          0.00000   0.00000   0.20166  -0.06358   0.00000
   3        2PX        -0.00045   0.00000   0.00000   0.00000   0.28517
   4        2PY         0.00000  -0.00045   0.00000   0.00000   0.00000
   5        2PZ         0.00000   0.00000   0.17842  -0.03340   0.00000
   6        3S          0.00000   0.00000   0.57933  -0.12601   0.00000
   7        3PX         0.00278   0.00000   0.00000   0.00000   0.22137
   8        3PY         0.00000   0.00278   0.00000   0.00000   0.00000
   9        3PZ         0.00000   0.00000   0.11543   0.00847   0.00000
  10 2   C  1S          0.00000   0.00000  -0.17295  -0.16678   0.00000
  11        2S          0.00000   0.00000   0.15384   0.17371   0.00000
  12        2PX        -0.00068   0.00000   0.00000   0.00000   0.42870
  13        2PY         0.00000  -0.00068   0.00000   0.00000   0.00000
  14        2PZ         0.00000   0.00000  -0.22385   0.40669   0.00000
  15        3S          0.00000   0.00000   0.10765   0.30795   0.00000
  16        3PX        -0.00108   0.00000   0.00000   0.00000   0.25844
  17        3PY         0.00000  -0.00108   0.00000   0.00000   0.00000
  18        3PZ         0.00000   0.00000   0.07122   0.12405   0.00000
  19 3   S  1S          0.00000   0.00000   0.00996   0.07153   0.00000
  20        2S          0.00000   0.00000  -0.05419  -0.40428   0.00000
  21        2PX         0.97293   0.00000   0.00000   0.00000  -0.15242
  22        2PY         0.00000   0.97293   0.00000   0.00000   0.00000
  23        2PZ         0.00000   0.00000   0.02201   0.17054   0.00000
  24        3S          0.00000   0.00000   0.09134   0.35610   0.00000
  25        3PX         0.08495   0.00000   0.00000   0.00000   0.28014
  26        3PY         0.00000   0.08495   0.00000   0.00000   0.00000
  27        3PZ         0.00000   0.00000  -0.07970  -0.15898   0.00000
  28        4S          0.00000   0.00000  -0.03512   0.05545   0.00000
  29        4PX        -0.02418   0.00000   0.00000   0.00000   0.05395
  30        4PY         0.00000  -0.02418   0.00000   0.00000   0.00000
  31        4PZ         0.00000   0.00000   0.02081   0.04736   0.00000
                          11        12        13        14        15
                           O         O         O         O         O
     Eigenvalues --    -0.79838  -0.70735  -0.58545  -0.42344  -0.42344
   1 1   O  1S          0.00000  -0.12034  -0.00698   0.00000   0.00000
   2        2S          0.00000   0.10659   0.00680   0.00000   0.00000
   3        2PX         0.00000   0.00000   0.00000  -0.37592   0.00000
   4        2PY         0.28517   0.00000   0.00000   0.00000  -0.37592
   5        2PZ         0.00000  -0.44104   0.04767   0.00000   0.00000
   6        3S          0.00000   0.49978   0.01163   0.00000   0.00000
   7        3PX         0.00000   0.00000   0.00000  -0.47292   0.00000
   8        3PY         0.22137   0.00000   0.00000   0.00000  -0.47292
   9        3PZ         0.00000  -0.36750   0.02609   0.00000   0.00000
  10 2   C  1S          0.00000   0.08326   0.09991   0.00000   0.00000
  11        2S          0.00000  -0.09872  -0.12061   0.00000   0.00000
  12        2PX         0.00000   0.00000   0.00000   0.06483   0.00000
  13        2PY         0.42870   0.00000   0.00000   0.00000   0.06483
  14        2PZ         0.00000   0.27730  -0.26651   0.00000   0.00000
  15        3S          0.00000  -0.25416  -0.38668   0.00000   0.00000
  16        3PX         0.00000   0.00000   0.00000  -0.01493   0.00000
  17        3PY         0.25844   0.00000   0.00000   0.00000  -0.01493
  18        3PZ         0.00000  -0.14430  -0.08900   0.00000   0.00000
  19 3   S  1S          0.00000   0.01019   0.03420   0.00000   0.00000
  20        2S          0.00000  -0.05789  -0.20213   0.00000   0.00000
  21        2PX         0.00000   0.00000   0.00000  -0.21444   0.00000
  22        2PY        -0.15242   0.00000   0.00000   0.00000  -0.21444
  23        2PZ         0.00000   0.01133  -0.25664   0.00000   0.00000
  24        3S          0.00000   0.07878   0.31084   0.00000   0.00000
  25        3PX         0.00000   0.00000   0.00000   0.47615   0.00000
  26        3PY         0.28014   0.00000   0.00000   0.00000   0.47615
  27        3PZ         0.00000   0.02190   0.42271   0.00000   0.00000
  28        4S          0.00000   0.22951   0.72820   0.00000   0.00000
  29        4PX         0.00000   0.00000   0.00000   0.36053   0.00000
  30        4PY         0.05395   0.00000   0.00000   0.00000   0.36053
  31        4PZ         0.00000  -0.06588   0.15500   0.00000   0.00000
                          16        17        18        19        20
                           V         V         V         V         V
     Eigenvalues --     0.25189   0.25189   0.27439   0.50337   0.65064
   1 1   O  1S          0.00000   0.00000   0.04808   0.10020   0.00000
   2        2S          0.00000   0.00000  -0.01348   0.00086   0.00000
   3        2PX         0.24322   0.00000   0.00000   0.00000   0.15064
   4        2PY         0.00000   0.24322   0.00000   0.00000   0.00000
   5        2PZ         0.00000   0.00000  -0.03508  -0.04380   0.00000
   6        3S          0.00000   0.00000  -0.65280  -1.72436   0.00000
   7        3PX         0.57509   0.00000   0.00000   0.00000   0.27325
   8        3PY         0.00000   0.57509   0.00000   0.00000   0.00000
   9        3PZ         0.00000   0.00000  -0.05166  -0.39774   0.00000
  10 2   C  1S          0.00000   0.00000   0.09345  -0.04888   0.00000
  11        2S          0.00000   0.00000  -0.06422   0.06682   0.00000
  12        2PX        -0.45649   0.00000   0.00000   0.00000   0.15203
  13        2PY         0.00000  -0.45649   0.00000   0.00000   0.00000
  14        2PZ         0.00000   0.00000  -0.19626   0.15333   0.00000
  15        3S          0.00000   0.00000  -3.48895   2.15594   0.00000
  16        3PX        -1.04629   0.00000   0.00000   0.00000  -0.73834
  17        3PY         0.00000  -1.04629   0.00000   0.00000   0.00000
  18        3PZ         0.00000   0.00000  -1.52879  -1.60747   0.00000
  19 3   S  1S          0.00000   0.00000  -0.01738  -0.04021   0.00000
  20        2S          0.00000   0.00000   0.10449   0.25376   0.00000
  21        2PX        -0.03328   0.00000   0.00000   0.00000  -0.31624
  22        2PY         0.00000  -0.03328   0.00000   0.00000   0.00000
  23        2PZ         0.00000   0.00000  -0.02320   0.05683   0.00000
  24        3S          0.00000   0.00000  -0.15371  -0.53450   0.00000
  25        3PX         0.04262   0.00000   0.00000   0.00000   1.13715
  26        3PY         0.00000   0.04262   0.00000   0.00000   0.00000
  27        3PZ         0.00000   0.00000  -0.09958  -0.18230   0.00000
  28        4S          0.00000   0.00000   3.85815   0.16680   0.00000
  29        4PX         1.18483   0.00000   0.00000   0.00000  -0.65757
  30        4PY         0.00000   1.18483   0.00000   0.00000   0.00000
  31        4PZ         0.00000   0.00000  -2.33437   1.24436   0.00000
                          21        22        23        24        25
                           V         V         V         V         V
     Eigenvalues --     0.65064   0.70580   0.95852   0.95852   0.99897
   1 1   O  1S          0.00000   0.08814   0.00000   0.00000   0.02942
   2        2S          0.00000  -0.02267   0.00000   0.00000  -0.06014
   3        2PX         0.00000   0.00000  -0.02946   0.00000   0.00000
   4        2PY         0.15064   0.00000   0.00000  -0.02946   0.00000
   5        2PZ         0.00000  -0.00169   0.00000   0.00000  -0.30038
   6        3S          0.00000  -1.51230   0.00000   0.00000   0.30708
   7        3PX         0.00000   0.00000  -0.12295   0.00000   0.00000
   8        3PY         0.27325   0.00000   0.00000  -0.12295   0.00000
   9        3PZ         0.00000  -0.37702   0.00000   0.00000  -0.69099
  10 2   C  1S          0.00000  -0.00135   0.00000   0.00000  -0.08382
  11        2S          0.00000  -0.01496   0.00000   0.00000  -0.22361
  12        2PX         0.00000   0.00000  -1.03566   0.00000   0.00000
  13        2PY         0.15203   0.00000   0.00000  -1.03566   0.00000
  14        2PZ         0.00000   0.02857   0.00000   0.00000  -0.46927
  15        3S          0.00000   1.81013   0.00000   0.00000   6.32307
  16        3PX         0.00000   0.00000   1.46836   0.00000   0.00000
  17        3PY        -0.73834   0.00000   0.00000   1.46836   0.00000
  18        3PZ         0.00000  -1.29453   0.00000   0.00000   3.53050
  19 3   S  1S          0.00000   0.03893   0.00000   0.00000  -0.02954
  20        2S          0.00000  -0.18829   0.00000   0.00000   0.10214
  21        2PX         0.00000   0.00000  -0.16717   0.00000   0.00000
  22        2PY        -0.31624   0.00000   0.00000  -0.16717   0.00000
  23        2PZ         0.00000  -0.21791   0.00000   0.00000  -0.20457
  24        3S          0.00000   1.44248   0.00000   0.00000  -1.79650
  25        3PX         0.00000   0.00000   0.59551   0.00000   0.00000
  26        3PY         1.13715   0.00000   0.00000   0.59551   0.00000
  27        3PZ         0.00000   0.76593   0.00000   0.00000   0.98909
  28        4S          0.00000  -1.55204   0.00000   0.00000  -4.56519
  29        4PX         0.00000   0.00000  -1.11171   0.00000   0.00000
  30        4PY        -0.65757   0.00000   0.00000  -1.11171   0.00000
  31        4PZ         0.00000  -0.00106   0.00000   0.00000   1.75849
                          26        27        28        29        30
                           V         V         V         V         V
     Eigenvalues --     1.50085   1.94786   1.94786   1.96822   2.27051
   1 1   O  1S         -0.10324   0.00000   0.00000  -0.04610  -0.04899
   2        2S          0.04896   0.00000   0.00000   0.09420   0.08622
   3        2PX         0.00000  -1.04416   0.00000   0.00000   0.00000
   4        2PY         0.00000   0.00000  -1.04416   0.00000   0.00000
   5        2PZ        -0.44932   0.00000   0.00000  -0.05178   0.97912
   6        3S          1.54472   0.00000   0.00000  -0.04516   0.90471
   7        3PX         0.00000   1.28642   0.00000   0.00000   0.00000
   8        3PY         0.00000   0.00000   1.28642   0.00000   0.00000
   9        3PZ         1.51646   0.00000   0.00000   0.45954  -0.57148
  10 2   C  1S         -0.02909   0.00000   0.00000  -0.06324   0.08220
  11        2S         -0.08170   0.00000   0.00000  -2.19803  -0.35992
  12        2PX         0.00000   0.08893   0.00000   0.00000   0.00000
  13        2PY         0.00000   0.00000   0.08893   0.00000   0.00000
  14        2PZ         1.18468   0.00000   0.00000  -0.31333   1.03013
  15        3S         -0.81443   0.00000   0.00000   3.93286   3.54819
  16        3PX         0.00000  -0.78771   0.00000   0.00000   0.00000
  17        3PY         0.00000   0.00000  -0.78771   0.00000   0.00000
  18        3PZ         1.04499   0.00000   0.00000   0.71387   2.27303
  19 3   S  1S         -0.01917   0.00000   0.00000   0.01890  -0.01907
  20        2S          0.09618   0.00000   0.00000  -0.14585   0.06230
  21        2PX         0.00000  -0.02205   0.00000   0.00000   0.00000
  22        2PY         0.00000   0.00000  -0.02205   0.00000   0.00000
  23        2PZ        -0.15639   0.00000   0.00000   0.14507  -0.13559
  24        3S         -1.21232   0.00000   0.00000   0.65192  -1.78025
  25        3PX         0.00000   0.11716   0.00000   0.00000   0.00000
  26        3PY         0.00000   0.00000   0.11716   0.00000   0.00000
  27        3PZ         1.07849   0.00000   0.00000  -0.91447   1.17985
  28        4S          0.20086   0.00000   0.00000  -2.80405  -2.43323
  29        4PX         0.00000   0.28012   0.00000   0.00000   0.00000
  30        4PY         0.00000   0.00000   0.28012   0.00000   0.00000
  31        4PZ        -0.49773   0.00000   0.00000   1.70806   0.78512
                          31
                           V
     Eigenvalues --     3.74824
   1 1   O  1S          0.01826
   2        2S         -1.90413
   3        2PX         0.00000
   4        2PY         0.00000
   5        2PZ        -0.03254
   6        3S          4.02109
   7        3PX         0.00000
   8        3PY         0.00000
   9        3PZ         1.04546
  10 2   C  1S         -0.08672
  11        2S         -0.48732
  12        2PX         0.00000
  13        2PY         0.00000
  14        2PZ         0.37440
  15        3S         -1.01295
  16        3PX         0.00000
  17        3PY         0.00000
  18        3PZ         2.19063
  19 3   S  1S         -0.00397
  20        2S         -0.01473
  21        2PX         0.00000
  22        2PY         0.00000
  23        2PZ        -0.00605
  24        3S         -0.73369
  25        3PX         0.00000
  26        3PY         0.00000
  27        3PZ         0.12700
  28        4S         -0.51665
  29        4PX         0.00000
  30        4PY         0.00000
  31        4PZ        -0.02974
          Condensed to atoms (all electrons):
               1          2          3
     1  O    7.826684   0.681266  -0.153730
     2  C    0.681266   5.590518  -0.122086
     3  S   -0.153730  -0.122086  15.771898
 Mulliken charges:
               1
     1  O   -0.354220
     2  C   -0.149698
     3  S    0.503918
 Sum of Mulliken charges =   0.00000
 Mulliken charges with hydrogens summed into heavy atoms:
               1
     1  O   -0.354220
     2  C   -0.149698
     3  S    0.503918
 APT charges:
               1
     1  O   -0.637141
     2  C    0.801777
     3  S   -0.164636
 Sum of APT charges =   0.00000
 APT charges with hydrogens summed into heavy atoms:
               1
     1  O   -0.637141
     2  C    0.801777
     3  S   -0.164636
 Electronic spatial extent (au):  <R**2>=            128.5438
 Charge=              0.0000 electrons
 Dipole moment (field-independent basis, Debye):
    X=              0.0000    Y=              0.0000    Z=              1.1929  Tot=              1.1929
 Quadrupole moment (field-independent basis, Debye-Ang):
   XX=            -20.6373   YY=            -20.6373   ZZ=            -26.5911
   XY=              0.0000   XZ=              0.0000   YZ=              0.0000
 Traceless Quadrupole moment (field-independent basis, Debye-Ang):
   XX=              1.9846   YY=              1.9846   ZZ=             -3.9692
   XY=              0.0000   XZ=              0.0000   YZ=              0.0000
 Octapole moment (field-independent basis, Debye-Ang**2):
  XXX=              0.0000  YYY=              0.0000  ZZZ=              0.1253  XYY=              0.0000
  XXY=              0.0000  XXZ=             -1.9077  XZZ=              0.0000  YZZ=              0.0000
  YYZ=             -1.9077  XYZ=              0.0000
 Hexadecapole moment (field-independent basis, Debye-Ang**3):
 XXXX=            -19.6216 YYYY=            -19.6216 ZZZZ=           -123.1079 XXXY=              0.0000
 XXXZ=              0.0000 YYYX=              0.0000 YYYZ=              0.0000 ZZZX=              0.0000
 ZZZY=              0.0000 XXYY=             -6.5405 XXZZ=            -22.4816 YYZZ=            -22.4816
 XXYZ=              0.0000 YYXZ=              0.0000 ZZXY=              0.0000
 N-N= 1.100688598714D+02 E-N=-1.429355810415D+03  KE= 5.132289936324D+02
 Symmetry A1   KE= 4.271391584691D+02
 Symmetry A2   KE= 0.000000000000D+00
 Symmetry B1   KE= 4.304491758163D+01
 Symmetry B2   KE= 4.304491758163D+01
 Orbital energies and kinetic energies (alpha):
                                 1                 2
   1         O               -91.274584        120.231180
   2         O               -20.463559         28.914771
   3         O               -11.337403         15.802910
   4         O                -8.971529         19.094507
   5         O                -6.662960         17.207972
   6         O                -6.621247         17.325901
   7         O                -6.621247         17.325901
   8         O                -1.577972          3.155246
   9         O                -1.284353          3.918840
  10         O                -0.798384          1.850768
  11         O                -0.798384          1.850768
  12         O                -0.707350          2.759937
  13         O                -0.585453          2.484216
  14         O                -0.423437          2.345789
  15         O                -0.423437          2.345789
  16         V                 0.251885          1.543955
  17         V                 0.251885          1.543955
  18         V                 0.274394          0.900982
  19         V                 0.503371          1.861226
  20         V                 0.650642          2.762158
  21         V                 0.650642          2.762158
  22         V                 0.705799          2.545309
  23         V                 0.958522          2.934051
  24         V                 0.958522          2.934051
  25         V                 0.998966          3.192738
  26         V                 1.500848          4.090851
  27         V                 1.947859          5.163440
  28         V                 1.947859          5.163440
  29         V                 1.968220          4.008552
  30         V                 2.270506          6.775978
  31         V                 3.748240          6.624537
 Total kinetic energy from orbitals= 5.132289936324D+02
  Exact polarizability:       9.288       0.000       9.288       0.000       0.000      28.565
 Approx polarizability:       7.015      -0.000       7.015      -0.000      -0.000      33.137
 No NMR shielding tensors so no spin-rotation constants.
 Leave Link  601 at Wed May 11 08:21:53 2022, MaxMem=   524288000 cpu:               2.5 elap:               0.9
 (Enter /usr/local/gaussian/2016-C.01/g16/l701.exe)
 ... and contract with generalized density number  2.
 Compute integral second derivatives.
 Leave Link  701 at Wed May 11 08:21:53 2022, MaxMem=   524288000 cpu:               1.4 elap:               0.6
 (Enter /usr/local/gaussian/2016-C.01/g16/l702.exe)
 L702 exits ... SP integral derivatives will be done elsewhere.
 Leave Link  702 at Wed May 11 08:21:54 2022, MaxMem=   524288000 cpu:               0.2 elap:               0.1
 (Enter /usr/local/gaussian/2016-C.01/g16/l703.exe)
 Integral derivatives from FoFJK, PRISM(SPDF).
 Compute integral second derivatives, UseDBF=F ICtDFT=           0.
 Calling FoFJK, ICntrl=  10100127 FMM=F ISym2X=1 I1Cent= 0 IOpClX= 0 NMat=1 NMatS=1 NMatT=0.
 FoFJK:  IHMeth= 1 ICntrl=10100127 DoSepK=F KAlg= 0 I1Cent=           0 FoldK=F
 IRaf=         0 NMat=       1 IRICut=       1 DoRegI=T DoRafI=F ISym2E= 1 IDoP0=0 IntGTp=1.
 FoFCou: FMM=F IPFlag=           0 FMFlag=      100000 FMFlg1=         800
         NFxFlg=           0 DoJE=F BraDBF=F KetDBF=F FulRan=T
         wScrn=  0.000000 ICntrl=  10100127 IOpCl=  0 I1Cent=           0 NGrid=           0
         NMat0=    1 NMatS0=      1 NMatT0=    0 NMatD0=    1 NMtDS0=    0 NMtDT0=    0
 Petite list used in FoFCou.
 Leave Link  703 at Wed May 11 08:21:54 2022, MaxMem=   524288000 cpu:               1.5 elap:               0.8
 (Enter /usr/local/gaussian/2016-C.01/g16/l716.exe)
 Dipole        =-0.00000000D+00-0.00000000D+00 2.23309040D-01
 Polarizability= 9.28767805D+00 0.00000000D+00 9.28767805D+00
                 0.00000000D+00 0.00000000D+00 2.85649445D+01
 Full mass-weighted force constant matrix:
 Low frequencies ----2106.9859-2106.9859 -768.2539 -768.2539    0.0025    0.0033
 Low frequencies ---    0.0034 2404.5603 5474.7578
 ******    2 imaginary frequencies (negative Signs) ****** 
 Diagonal vibrational polarizability:
        0.0142430       0.0142430       0.8697042
 Harmonic frequencies (cm**-1), IR intensities (KM/Mole), Raman scattering
 activities (A**4/AMU), depolarization ratios for plane and unpolarized
 incident light, reduced masses (AMU), force constants (mDyne/A),
 and normal coordinates:
                      1                      2                      3
                     PI                     PI                     SG
 Frequencies --  -1950.0525             -1950.0525              2404.5603
 Red. masses --     13.0762                13.0762                18.9643
 Frc consts  --     29.2970                29.2970                64.6038
 IR Inten    --      2.0126                 2.0126               100.2471
  Atom  AN      X      Y      Z        X      Y      Z        X      Y      Z
     1   8    -0.35  -0.00  -0.00    -0.00  -0.35  -0.00     0.00   0.00   0.90
     2   6     0.92  -0.00  -0.00    -0.00   0.92  -0.00     0.00   0.00  -0.05
     3  16    -0.17  -0.00  -0.00    -0.00  -0.17  -0.00     0.00   0.00  -0.43
                      4
                     SG
 Frequencies --   5474.7578
 Red. masses --     13.4459
 Frc consts  --    237.4483
 IR Inten    --    448.9798
  Atom  AN      X      Y      Z
     1   8     0.00   0.00  -0.20
     2   6     0.00   0.00   0.95
     3  16     0.00   0.00  -0.25

 -------------------
 - Thermochemistry -
 -------------------
 Temperature   298.150 Kelvin.  Pressure   1.00000 Atm.
 Atom     1 has atomic number  8 and mass  15.99491
 Atom     2 has atomic number  6 and mass  12.00000
 Atom     3 has atomic number 16 and mass  31.97207
 Molecular mass:    59.96699 amu.
 Principal axes and moments of inertia in atomic units:
                           1         2         3
     Eigenvalues --     0.00000 156.09179 156.09179
           X            0.00000  -0.00000   1.00000
           Y            0.00000   1.00000   0.00000
           Z            1.00000   0.00000   0.00000
 This molecule is a prolate symmetric top.
 Rotational symmetry number  1.
 Rotational temperature (Kelvin)      0.55489
 Rotational constant (GHZ):          11.562051
    2 imaginary frequencies ignored.
 Zero-point vibrational energy      47128.8 (Joules/Mol)
                                   11.26405 (Kcal/Mol)
 Vibrational temperatures:   3459.63  7876.96
          (Kelvin)
 
 Zero-point correction=                           0.017950 (Hartree/Particle)
 Thermal correction to Energy=                    0.020311
 Thermal correction to Enthalpy=                  0.021255
 Thermal correction to Gibbs Free Energy=        -0.003772
 Sum of electronic and zero-point Energies=           -506.773091
 Sum of electronic and thermal Energies=              -506.770731
 Sum of electronic and thermal Enthalpies=            -506.769787
 Sum of electronic and thermal Free Energies=         -506.794814
 
                     E (Thermal)             CV                S
                      KCal/Mol        Cal/Mol-Kelvin    Cal/Mol-Kelvin
 Total                   12.745              4.970             52.674
 Electronic               0.000              0.000              0.000
 Translational            0.889              2.981             38.194
 Rotational               0.592              1.987             14.480
 Vibrational             11.264              0.002              0.000
                       Q            Log10(Q)             Ln(Q)
 Total Bot       0.543183D+02          1.734946          3.994862
 Total V=0       0.980739D+10          9.991553         23.006402
 Vib (Bot)       0.553856D-08         -8.256603        -19.011531
 Vib (V=0)       0.100001D+01          0.000004          0.000009
 Electronic      0.100000D+01          0.000000          0.000000
 Translational   0.182525D+08          7.261322         16.719812
 Rotational      0.537313D+03          2.730227          6.286580
 
                                                        Arkadiusz Rembiszewski
                                                             IR Spectrum
 
     5                                                                       2                                                       
     4                                                                       4                                                       
     7                                                                       0                                                       
     5                                                                       5                                                       
 
     X                                                                       X                                                       
     X                                                                       X                                                       
     X                                                                       X                                                       
     X                                                                       X                                                       
     X                                                                                                                               
     X                                                                                                                               
     X                                                                                                                               
     X                                                                                                                               
     X                                                                                                                               
     X                                                                                                                               
     X                                                                                                                               
     X                                                                                                                               
     X                                                                                                                               
     X                                                                                                                               
     X                                                                                                                               
     X                                                                                                                               
     X                                                                                                                               
     X                                                                                                                               
     X                                                                                                                               
     X                                                                                                                               
 
 ***** Axes restored to original set *****
 -------------------------------------------------------------------
 Center     Atomic                   Forces (Hartrees/Bohr)
 Number     Number              X              Y              Z
 -------------------------------------------------------------------
      1        8          -0.000000000   -0.000000000   -0.742681495
      2        6          -0.000000000   -0.000000000   -2.349779482
      3       16          -0.000000000   -0.000000000    3.092460978
 -------------------------------------------------------------------
 Cartesian Forces:  Max     3.092460978 RMS     1.318094345
 Z-matrix is all fixed cartesians, so copy forces.
 Force constants in Cartesian coordinates: 
                1             2             3             4             5 
      1 -0.265322D+00
      2  0.000000D+00 -0.265322D+00
      3  0.000000D+00  0.000000D+00  0.328704D+01
      4  0.137633D+00  0.000000D+00  0.000000D+00 -0.151872D+01
      5  0.000000D+00  0.137633D+00  0.000000D+00  0.000000D+00 -0.151872D+01
      6  0.000000D+00  0.000000D+00 -0.321448D+01  0.000000D+00  0.000000D+00
      7  0.127688D+00  0.000000D+00  0.000000D+00  0.138108D+01  0.000000D+00
      8  0.000000D+00  0.127688D+00  0.000000D+00  0.000000D+00  0.138108D+01
      9  0.000000D+00  0.000000D+00 -0.725641D-01  0.000000D+00  0.000000D+00
                6             7             8             9 
      6  0.108703D+02
      7  0.000000D+00 -0.150877D+01
      8  0.000000D+00  0.000000D+00 -0.150877D+01
      9 -0.765585D+01  0.000000D+00  0.000000D+00  0.772842D+01
 Leave Link  716 at Wed May 11 08:21:55 2022, MaxMem=   524288000 cpu:               1.3 elap:               0.5
 (Enter /usr/local/gaussian/2016-C.01/g16/l103.exe)

 GradGradGradGradGradGradGradGradGradGradGradGradGradGradGradGradGradGrad
 Berny optimization.
 Search for a local minimum.
 Step number   1 out of a maximum of    2
 All quantities printed in internal units (Hartrees-Bohrs-Radians)
 Second derivative matrix not updated -- analytic derivatives used.
 The second derivative matrix:
                          X1        Y1        Z1        X2        Y2
           X1          -0.26532
           Y1           0.00000  -0.26532
           Z1           0.00000   0.00000   3.28704
           X2           0.13763   0.00000   0.00000  -1.51872
           Y2           0.00000   0.13763   0.00000   0.00000  -1.51872
           Z2           0.00000   0.00000  -3.21448   0.00000   0.00000
           X3           0.12769   0.00000   0.00000   1.38108   0.00000
           Y3           0.00000   0.12769   0.00000   0.00000   1.38108
           Z3           0.00000   0.00000  -0.07256   0.00000   0.00000
                          Z2        X3        Y3        Z3
           Z2          10.87033
           X3           0.00000  -1.50877
           Y3           0.00000   0.00000  -1.50877
           Z3          -7.65585   0.00000   0.00000   7.72842
 ITU=  0
     Eigenvalues ---   -2.06126  -2.06126   4.29809  16.95549
 Eigenvalue     1 is  -2.06D+00 should be greater than     0.000000 Eigenvector:
                          X2        X1        X3        Z1        Z2
   1                    0.88345  -0.38255  -0.27050  -0.00000  -0.00000
                          Y2        Y1        Y3        Z3
   1                   -0.00000  -0.00000  -0.00000  -0.00000
 Eigenvalue     2 is  -2.06D+00 should be greater than     0.000000 Eigenvector:
                          Y2        Y1        Y3        X3        Z2
   1                    0.88345  -0.38255  -0.27050  -0.00000  -0.00000
                          X1        Z3        Z1        X2
   1                   -0.00000  -0.00000  -0.00000  -0.00000
 Quadratic step=4.481D-01 exceeds max=3.000D-01 adjusted using Lamda=-2.725D+00.
 Angle between NR and scaled steps=   8.68 degrees.
 Angle between quadratic step and forces=  30.16 degrees.
 ClnCor:  largest displacement from symmetrization is 0.00D+00 for atom     0.
 Linear search not attempted -- first point.
 ClnCor:  largest displacement from symmetrization is 8.33D-17 for atom     1.
 B after Tr=     0.000000    0.000000    0.032962
         Rot=    1.000000    0.000000    0.000000    0.000000 Ang=   0.00 deg.
 Variable       Old X    -DE/DX   Delta X   Delta X   Delta X     New X
                                 (Linear)    (Quad)   (Total)
    X1        0.00000  -0.00000   0.00000   0.00000   0.00000   0.00000
    Y1        0.00000  -0.00000   0.00000   0.00000   0.00000   0.00000
    Z1        0.00000  -0.74268   0.00000  -0.19312  -0.16016  -0.16016
    X2        0.00000  -0.00000   0.00000   0.00000   0.00000   0.00000
    Y2        0.00000  -0.00000   0.00000   0.00000   0.00000   0.00000
    Z2        1.88973  -2.34978   0.00000  -0.10918  -0.07622   1.81351
    X3        0.00000  -0.00000   0.00000   0.00000   0.00000   0.00000
    Y3        0.00000  -0.00000   0.00000   0.00000   0.00000   0.00000
    Z3        3.77945   3.09246   0.00000   0.20342   0.23638   4.01584
         Item               Value     Threshold  Converged?
 Maximum Force            3.092461     0.000450     NO 
 RMS     Force            1.318094     0.000300     NO 
 Maximum Displacement     0.236383     0.001800     NO 
 RMS     Displacement     0.098510     0.001200     NO 
 Predicted change in Energy=-6.379573D-01
 GradGradGradGradGradGradGradGradGradGradGradGradGradGradGradGradGradGrad

 Leave Link  103 at Wed May 11 08:21:55 2022, MaxMem=   524288000 cpu:               1.1 elap:               0.4
 (Enter /usr/local/gaussian/2016-C.01/g16/l9999.exe)

 ----------------------------------------------------------------------

 Electric dipole moment (input orientation):
 (Debye = 10**-18 statcoulomb cm , SI units = C m)
                  (au)            (Debye)         (10**-30 SI)
   Tot        0.223309D+00      0.567595D+00      0.189329D+01
   x          0.000000D+00      0.000000D+00      0.000000D+00
   y          0.000000D+00      0.000000D+00      0.000000D+00
   z          0.223309D+00      0.567595D+00      0.189329D+01

 Dipole polarizability, Alpha (input orientation).
 (esu units = cm**3 , SI units = C**2 m**2 J**-1)
 Alpha(0;0):
               (au)            (10**-24 esu)      (10**-40 SI)
   iso        0.157134D+02      0.232849D+01      0.259080D+01
   aniso      0.192773D+02      0.285660D+01      0.317839D+01
   xx         0.928768D+01      0.137629D+01      0.153133D+01
   yx         0.000000D+00      0.000000D+00      0.000000D+00
   yy         0.928768D+01      0.137629D+01      0.153133D+01
   zx         0.000000D+00      0.000000D+00      0.000000D+00
   zy         0.000000D+00      0.000000D+00      0.000000D+00
   zz         0.285649D+02      0.423289D+01      0.470972D+01

 ----------------------------------------------------------------------

 Dipole orientation:
     8          0.00000000          0.00000000          0.00000000
     6          0.00000000          0.00000000          1.88972612
    16          0.00000000          0.00000000          3.77945225

 Electric dipole moment (dipole orientation):
 (Debye = 10**-18 statcoulomb cm , SI units = C m)
                  (au)            (Debye)         (10**-30 SI)
   Tot        0.223309D+00      0.567595D+00      0.189329D+01
   x          0.000000D+00      0.000000D+00      0.000000D+00
   y          0.000000D+00      0.000000D+00      0.000000D+00
   z          0.223309D+00      0.567595D+00      0.189329D+01

 Dipole polarizability, Alpha (dipole orientation).
 (esu units = cm**3 , SI units = C**2 m**2 J**-1)
 Alpha(0;0):
               (au)            (10**-24 esu)      (10**-40 SI)
   iso        0.157134D+02      0.232849D+01      0.259080D+01
   aniso      0.192773D+02      0.285660D+01      0.317839D+01
   xx         0.928768D+01      0.137629D+01      0.153133D+01
   yx         0.000000D+00      0.000000D+00      0.000000D+00
   yy         0.928768D+01      0.137629D+01      0.153133D+01
   zx         0.000000D+00      0.000000D+00      0.000000D+00
   zy         0.000000D+00      0.000000D+00      0.000000D+00
   zz         0.285649D+02      0.423289D+01      0.470972D+01

 ----------------------------------------------------------------------

 Test job not archived.
 1\1\WWW.WCSS.PL-BEM-WN1105\Freq\RMP2-FC\3-21G\C1O1S1\ROOT\11-May-2022\
 0\\#p mp2/3-21g freq gfinput iop(6/7=3)\\Arkadiusz Rembiszewski\\0,1\O
 ,0.,0.,0.\C,0.,0.,1.\S,0.,0.,2.\\Version=EM64L-G16RevC.01\State=1-SG\H
 F=-506.5458462\MP2=-506.7910418\RMSD=2.677e-09\RMSF=1.318e+00\ZeroPoin
 t=0.0179504\Thermal=0.020311\ETot=-506.7707309\HTot=-506.7697867\GTot=
 -506.7948137\Dipole=0.,0.,0.223309\DipoleDeriv=-0.1242856,0.,0.,0.,-0.
 1242856,0.,0.,0.,-1.662852,0.1304011,0.,0.,0.,0.1304011,0.,0.,0.,2.144
 5277,-0.0061155,0.,0.,0.,-0.0061155,0.,0.,0.,-0.4816757\Polar=9.287678
 ,0.,9.287678,0.,0.,28.5649445\PG=C*V [C*(O1C1S1)]\NImag=2\\-0.26532173
 ,0.,-0.26532173,0.,0.,3.28704183,0.13763333,0.,0.,-1.51871642,0.,0.137
 63333,0.,0.,-1.51871642,0.,0.,-3.21447777,0.,0.,10.87033130,0.12768839
 ,0.,0.,1.38108309,0.,0.,-1.50877148,0.,0.12768839,0.,0.,1.38108309,0.,
 0.,-1.50877148,0.,0.,-0.07256406,0.,0.,-7.65585353,0.,0.,7.72841759\\0
 .,0.,0.74268150,0.,0.,2.34977948,0.,0.,-3.09246098\\\@


 YOU CAN WIPE THE SLATE CLEAN, BUT YOU'LL STILL
 HAVE TO EAT A LITTLE CHALK DUST.
 Job cpu time:       0 days  0 hours  2 minutes  3.6 seconds.
 Elapsed time:       0 days  0 hours  0 minutes 43.4 seconds.
 File lengths (MBytes):  RWF=     21 Int=      0 D2E=      0 Chk=      1 Scr=      1
 Normal termination of Gaussian 16 at Wed May 11 08:21:56 2022.
esults.
 GradGradGradGradGradGradGradGradGradGradGradGradGradGradGradGradGradGrad

 Leave Link  103 at Wed May 11 08:21:41 2022, MaxMem=   524288000 cpu:               0.0 elap:               0.0
 (Enter /usr/local/gaussian/2016-C.01/g16/l202.exe)
                          Input orientation:                          
 ---------------------------------------------------------------------
 Center     Atomic      Atomic             Coordinates (Angstroms)
 Number     Number       Type             X           Y           Z
 ---------------------------------------------------------------------
      1          8           0        0.000000    0.000000   -0.287549
      2          6           0        0.000000    0.000000    1.007471
      3         16           0        0.000000    0.000000    2.280078
 ---------------------------------------------------------------------
                    Distance matrix (angstroms):
                    1          2          3
     1  O    0.000000
     2  C    1.295020   0.000000
     3  S    2.567626   1.272606   0.000000
 Stoichiometry    COS
 Framework group  C*V[C*(OCS)]
 Deg. of freedom     2
 Full point group                 C*V     NOp   4
 RotChk:  IX=0 Diff= 0.00D+00
 Largest Abelian subgroup         C2V     NOp   4
 Largest concise Abelian subgroup C1      NOp   1
                         Standard orientation:                         
 ---------------------------------------------------------------------
 Center     Atomic      Atomic             Coordinates (Angstroms)
 Number     Number       Type             X           Y           Z
 ---------------------------------------------------------------------
      1          8           0        0.000000    0.000000   -1.628405
      2          6           0        0.000000    0.000000   -0.333385
      3         16           0        0.000000    0.000000    0.939222
 ---------------------------------------------------------------------
 Rotational constants (GHZ):           0.0000000           7.0239101           7.0239101
 Leave Link  202 at Wed May 11 08:21:41 2022, MaxMem=   524288000 cpu:               0.1 elap:               0.0
 (Enter /usr/local/gaussian/2016-C.01/g16/l301.exe)
 Standard basis: 3-21G (6D, 7F)
 Ernie: Thresh=  0.10000D-02 Tol=  0.10000D-05 Strict=F.
 There are    17 symmetry adapted cartesian basis functions of A1  symmetry.
 There are     0 symmetry adapted cartesian basis functions of A2  symmetry.
 There are     7 symmetry adapted cartesian basis functions of B1  symmetry.
 There are     7 symmetry adapted cartesian basis functions of B2  symmetry.
 There are    17 symmetry adapted basis functions of A1  symmetry.
 There are     0 symmetry adapted basis functions of A2  symmetry.
 There are     7 symmetry adapted basis functions of B1  symmetry.
 There are     7 symmetry adapted basis functions of B2  symmetry.
    31 basis functions,    57 primitive gaussians,    31 cartesian basis functions
    15 alpha electrons       15 beta electrons
       nuclear repulsion energy        85.9131372016 Hartrees.



 Warning!  S  atom    3 may be hypervalent but has no d functions.



 IExCor=    0 DFT=F Ex=HF Corr=None ExCW=0 ScaHFX=  1.000000
 ScaDFX=  1.000000  1.000000  1.000000  1.000000 ScalE2=  1.000000  1.000000
 IRadAn=      5 IRanWt=     -1 IRanGd=            0 ICorTp=0 IEmpDi=  4
 NAtoms=    3 NActive=    3 NUniq=    3 SFac= 1.00D+00 NAtFMM=   60 NAOKFM=F Big=F
 Integral buffers will be    131072 words long.
 Raffenetti 1 integral format.
 Two-electron integral symmetry is turned on.
 Leave Link  301 at Wed May 11 08:21:41 2022, MaxMem=   524288000 cpu:               0.2 elap:               0.1
 (Enter /usr/local/gaussian/2016-C.01/g16/l302.exe)
 NPDir=0 NMtPBC=     1 NCelOv=     1 NCel=       1 NClECP=     1 NCelD=      1
         NCelK=      1 NCelE2=     1 NClLst=     1 CellRange=     0.0.
 One-electron integrals computed using PRISM.
 One-electron integral symmetry used in STVInt
 NBasis=    31 RedAO= T EigKep=  1.15D-02  NBF=    17     0     7     7
 NBsUse=    31 1.00D-06 EigRej= -1.00D+00 NBFU=    17     0     7     7
 Leave Link  302 at Wed May 11 08:21:41 2022, MaxMem=   524288000 cpu:               0.4 elap:               0.1
 (Enter /usr/local/gaussian/2016-C.01/g16/l303.exe)
 DipDrv:  MaxL=1.
 Leave Link  303 at Wed May 11 08:21:41 2022, MaxMem=   524288000 cpu:               0.1 elap:               0.0
 (Enter /usr/local/gaussian/2016-C.01/g16/l401.exe)
 Initial guess from the checkpoint file:  "/scratch/pbs.4144441.ossachilles/Gau-140729.chk"
 B after Tr=     0.000000    0.000000    0.000000
         Rot=    1.000000    0.000000    0.000000    0.000000 Ang=   0.00 deg.
 Guess basis will be translated and rotated to current coordinates.
[...]
  YYZ=             -3.9965  XYZ=              0.0000
 Hexadecapole moment (field-independent basis, Debye-Ang**3):
 XXXX=            -26.7525 YYYY=            -26.7525 ZZZZ=           -224.2281 XXXY=             -0.0000
 XXXZ=              0.0000 YYYX=             -0.0000 YYYZ=              0.0000 ZZZX=              0.0000
 ZZZY=             -0.0000 XXYY=             -8.9175 XXZZ=            -41.4105 YYZZ=            -41.4105
 XXYZ=              0.0000 YYXZ=              0.0000 ZZXY=             -0.0000
 N-N= 7.661000219732D+01 E-N=-1.358489580507D+03  KE= 5.067347256692D+02
 Symmetry A1   KE= 4.227549447381D+02
 Symmetry A2   KE= 0.000000000000D+00
 Symmetry B1   KE= 4.198989046555D+01
 Symmetry B2   KE= 4.198989046555D+01
  Exact polarizability:      10.693      -0.000      10.693      -0.000      -0.000      48.804
 Approx polarizability:       8.170       0.000       8.170      -0.000       0.000      56.018
 No NMR shielding tensors so no spin-rotation constants.
 Leave Link  601 at Wed May 11 08:21:58 2022, MaxMem=   524288000 cpu:               0.4 elap:               0.1
 (Enter /usr/local/gaussian/2016-C.01/g16/l701.exe)
 ... and contract with generalized density number  2.
 Compute integral second derivatives.
 Leave Link  701 at Wed May 11 08:21:59 2022, MaxMem=   524288000 cpu:               0.4 elap:               0.1
 (Enter /usr/local/gaussian/2016-C.01/g16/l702.exe)
 L702 exits ... SP integral derivatives will be done elsewhere.
 Leave Link  702 at Wed May 11 08:21:59 2022, MaxMem=   524288000 cpu:               0.1 elap:               0.0
 (Enter /usr/local/gaussian/2016-C.01/g16/l703.exe)
 Integral derivatives from FoFJK, PRISM(SPDF).
 Compute integral second derivatives, UseDBF=F ICtDFT=           0.
 Calling FoFJK, ICntrl=  10100127 FMM=F ISym2X=1 I1Cent= 0 IOpClX= 0 NMat=1 NMatS=1 NMatT=0.
 FoFJK:  IHMeth= 1 ICntrl=10100127 DoSepK=F KAlg= 0 I1Cent=           0 FoldK=F
 IRaf=         0 NMat=       1 IRICut=       1 DoRegI=T DoRafI=F ISym2E= 1 IDoP0=0 IntGTp=1.
 FoFCou: FMM=F IPFlag=           0 FMFlag=      100000 FMFlg1=         800
         NFxFlg=           0 DoJE=F BraDBF=F KetDBF=F FulRan=T
         wScrn=  0.000000 ICntrl=  10100127 IOpCl=  0 I1Cent=           0 NGrid=           0
         NMat0=    1 NMatS0=      1 NMatT0=    0 NMatD0=    1 NMtDS0=    0 NMtDT0=    0
 Petite list used in FoFCou.
 Leave Link  703 at Wed May 11 08:21:59 2022, MaxMem=   524288000 cpu:               0.9 elap:               0.2
 (Enter /usr/local/gaussian/2016-C.01/g16/l716.exe)
 Dipole        =-4.09456848D-16 2.89259513D-16-1.18664678D-01
 Polarizability= 1.06930736D+01-4.50515653D-15 1.06930736D+01
                -1.04013927D-14-3.80859089D-15 4.88042197D+01
 Full mass-weighted force constant matrix:
 Low frequencies ---   -0.0017   -0.0016   -0.0015    6.5720    6.5720  504.8878
 Low frequencies ---  504.8878  801.8092 1985.8026
 Diagonal vibrational polarizability:
        0.2602901       0.2602901       2.9959381
 Harmonic frequencies (cm**-1), IR intensities (KM/Mole), Raman scattering
 activities (A**4/AMU), depolarization ratios for plane and unpolarized
 incident light, reduced masses (AMU), force constants (mDyne/A),
 and normal coordinates:
                      1                      2                      3
                     PI                     PI                     SG
 Frequencies --    504.8875               504.8875               801.8092
 Red. masses --     13.0326                13.0326                19.6551
 Frc consts  --      1.9574                 1.9574                 7.4451
 IR Inten    --      2.4655                 2.4655                 9.4125
  Atom  AN      X      Y      Z        X      Y      Z        X      Y      Z
     1   8    -0.16  -0.36   0.00    -0.36   0.16  -0.00     0.00  -0.00  -0.72
     2   6     0.37   0.83  -0.00     0.83  -0.37  -0.00    -0.00   0.00  -0.45
     3  16    -0.06  -0.13  -0.00    -0.13   0.06   0.00     0.00  -0.00   0.53
                      4
                     SG
 Frequencies --   1985.8026
 Red. masses --     13.1189
 Frc consts  --     30.4804
 IR Inten    --    381.2730
  Atom  AN      X      Y      Z
     1   8     0.00  -0.00  -0.51
     2   6    -0.00   0.00   0.86
     3  16     0.00  -0.00  -0.07

 -------------------
 - Thermochemistry -
 -------------------
 Temperature   298.150 Kelvin.  Pressure   1.00000 Atm.
 Atom     1 has atomic number  8 and mass  15.99491
 Atom     2 has atomic number  6 and mass  12.00000
 Atom     3 has atomic number 16 and mass  31.97207
 Molecular mass:    59.96699 amu.
 Principal axes and moments of inertia in atomic units:
                           1         2         3
     Eigenvalues --     0.00000 318.28565 318.28565
           X            0.00000  -0.00000   1.00000
           Y            0.00000   1.00000   0.00000
           Z            1.00000   0.00000   0.00000
 This molecule is a prolate symmetric top.
 Rotational symmetry number  1.
 Rotational temperature (Kelvin)      0.27213
 Rotational constant (GHZ):           5.670193
 Zero-point vibrational energy      22713.4 (Joules/Mol)
                                    5.42864 (Kcal/Mol)
 Warning -- explicit consideration of   2 degrees of freedom as
           vibrations may cause significant error
 Vibrational temperatures:    726.42   726.42  1153.62  2857.13
          (Kelvin)
 
 Zero-point correction=                           0.008651 (Hartree/Particle)
 Thermal correction to Energy=                    0.011531
 Thermal correction to Enthalpy=                  0.012475
 Thermal correction to Gibbs Free Energy=        -0.013937
 Sum of electronic and zero-point Energies=           -507.945330
 Sum of electronic and thermal Energies=              -507.942450
 Sum of electronic and thermal Enthalpies=            -507.941506
 Sum of electronic and thermal Free Energies=         -507.967918
 
                     E (Thermal)             CV                S
                      KCal/Mol        Cal/Mol-Kelvin    Cal/Mol-Kelvin
 Total                    7.236              8.107             55.589
 Electronic               0.000              0.000              0.000
 Translational            0.889              2.981             38.194
 Rotational               0.592              1.987             15.896
 Vibrational              5.755              3.139              1.499
 Vibration     1          0.860              1.239              0.646
 Vibration     2          0.860              1.239              0.646
                       Q            Log10(Q)             Ln(Q)
 Total Bot       0.257316D+07          6.410467         14.760646
 Total V=0       0.245293D+11         10.389686         23.923136
 Vib (Bot)       0.128671D-03         -3.890519         -8.958251
 Vib (Bot)    1  0.324109D+00         -0.489309         -1.126676
 Vib (Bot)    2  0.324109D+00         -0.489309         -1.126676
 Vib (V=0)       0.122659D+01          0.088700          0.204238
 Vib (V=0)    1  0.109586D+01          0.039754          0.091538
 Vib (V=0)    2  0.109586D+01          0.039754          0.091538
 Electronic      0.100000D+01          0.000000          0.000000
 Translational   0.182525D+08          7.261322         16.719812
 Rotational      0.109563D+04          3.039664          6.999085
 
                                                        Arkadiusz Rembiszewski
                                                             IR Spectrum
 
     1                                                                                                                               
     9                                                                           8                  5                                
     8                                                                           0                  0                                
     6                                                                           2                  5                                
 
     X                                                                           X                  X                                
     X                                                                                                                               
     X                                                                                                                               
     X                                                                                                                               
     X                                                                                                                               
     X                                                                                                                               
     X                                                                                                                               
     X                                                                                                                               
     X                                                                                                                               
     X                                                                                                                               
     X                                                                                                                               
     X                                                                                                                               
     X                                                                                                                               
     X                                                                                                                               
     X                                                                                                                               
     X                                                                                                                               
     X                                                                                                                               
     X                                                                                                                               
     X                                                                                                                               
     X                                                                                                                               
 
 ***** Axes restored to original set *****
 -------------------------------------------------------------------
 Center     Atomic                   Forces (Hartrees/Bohr)
 Number     Number              X              Y              Z
 -------------------------------------------------------------------
      1        8           0.000000000   -0.000000000   -0.000250562
      2        6          -0.000000000    0.000000000    0.000605053
      3       16          -0.000000000    0.000000000   -0.000354491
 -------------------------------------------------------------------
 Cartesian Forces:  Max     0.000605053 RMS     0.000248223
 Force constants in Cartesian coordinates: 
                1             2             3             4             5 
      1  0.291527D-01
      2  0.000000D+00  0.291527D-01
      3  0.000000D+00  0.000000D+00  0.908434D+00
      4 -0.506211D-01  0.000000D+00  0.000000D+00  0.879546D-01
      5  0.000000D+00 -0.506211D-01  0.000000D+00  0.000000D+00  0.879546D-01
      6  0.000000D+00  0.000000D+00 -0.872590D+00  0.000000D+00  0.000000D+00
      7  0.214685D-01  0.000000D+00  0.000000D+00 -0.373335D-01  0.000000D+00
      8  0.000000D+00  0.214685D-01  0.000000D+00  0.000000D+00 -0.373335D-01
      9  0.000000D+00  0.000000D+00 -0.358440D-01  0.000000D+00  0.000000D+00
                6             7             8             9 
      6  0.124716D+01
      7  0.000000D+00  0.158650D-01
      8  0.000000D+00  0.000000D+00  0.158650D-01
      9 -0.374572D+00  0.000000D+00  0.000000D+00  0.410416D+00
 FormGI is forming the generalized inverse of G from B-inverse, IUseBI=4.
 Force constants in internal coordinates: 
                1             2             3             4 
      1  0.908434D+00
      2  0.358440D-01  0.410416D+00
      3  0.000000D+00  0.000000D+00  0.148528D+00
      4  0.000000D+00  0.000000D+00  0.000000D+00  0.148528D+00
 Leave Link  716 at Wed May 11 08:21:59 2022, MaxMem=   524288000 cpu:               0.1 elap:               0.1
 (Enter /usr/local/gaussian/2016-C.01/g16/l103.exe)

 GradGradGradGradGradGradGradGradGradGradGradGradGradGradGradGradGradGrad
 Berny optimization.
 Red2BG is reusing G-inverse.
 Internal  Forces:  Max     0.000354491 RMS     0.000217051
 Search for a local minimum.
 Step number   1 out of a maximum of    2
 All quantities printed in internal units (Hartrees-Bohrs-Radians)
 Second derivative matrix not updated -- analytic derivatives used.
 The second derivative matrix:
                          R1        R2        A1        A2
           R1           0.90843
           R2           0.03584   0.41042
           A1          -0.00000  -0.00000   0.14853
           A2          -0.00000  -0.00000   0.00000   0.14853
 ITU=  0
     Eigenvalues ---    0.14853   0.14853   0.40785   0.91100
 Angle between quadratic step and forces=  16.01 degrees.
 Linear search not attempted -- first point.
 Iteration  1 RMS(Cart)=  0.00031973 RMS(Int)=  0.00000000
 Iteration  2 RMS(Cart)=  0.00000000 RMS(Int)=  0.00000000
 ITry= 1 IFail=0 DXMaxC= 4.90D-04 DCOld= 1.00D+10 DXMaxT= 3.00D-01 DXLimC= 3.00D+00 Rises=F
 ClnCor:  largest displacement from symmetrization is 6.40D-14 for atom     2.
 Variable       Old X    -DE/DX   Delta X   Delta X   Delta X     New X
                                 (Linear)    (Quad)   (Total)
    R1        2.25288   0.00025   0.00000   0.00031   0.00031   2.25319
    R2        3.07092  -0.00035   0.00000  -0.00089  -0.00089   3.07003
    A1        3.14159  -0.00000   0.00000  -0.00000   0.00000   3.14159
    A2        3.14159  -0.00000   0.00000  -0.00000   0.00000   3.14159
         Item               Value     Threshold  Converged?
 Maximum Force            0.000354     0.000450     YES
 RMS     Force            0.000217     0.000300     YES
 Maximum Displacement     0.000490     0.001800     YES
 RMS     Displacement     0.000320     0.001200     YES
 Predicted change in Energy=-1.968652D-07
 Optimization completed.
    -- Stationary point found.
                           ----------------------------
                           !   Optimized Parameters   !
                           ! (Angstroms and Degrees)  !
 --------------------------                            --------------------------
 ! Name  Definition              Value          Derivative Info.                !
 --------------------------------------------------------------------------------
 ! R1    R(1,2)                  1.1922         -DE/DX =    0.0003              !
 ! R2    R(2,3)                  1.6251         -DE/DX =   -0.0004              !
 ! A1    L(1,2,3,-1,-1)        180.0            -DE/DX =    0.0                 !
 ! A2    L(1,2,3,-2,-2)        180.0            -DE/DX =    0.0                 !
 --------------------------------------------------------------------------------
 GradGradGradGradGradGradGradGradGradGradGradGradGradGradGradGradGradGrad

 Leave Link  103 at Wed May 11 08:21:59 2022, MaxMem=   524288000 cpu:               0.1 elap:               0.0
 (Enter /usr/local/gaussian/2016-C.01/g16/l9999.exe)

 ----------------------------------------------------------------------

 Electric dipole moment (input orientation):
 (Debye = 10**-18 statcoulomb cm , SI units = C m)
                  (au)            (Debye)         (10**-30 SI)
   Tot        0.118665D+00      0.301616D+00      0.100608D+01
   x          0.000000D+00      0.000000D+00      0.000000D+00
   y          0.000000D+00      0.000000D+00      0.000000D+00
   z         -0.118665D+00     -0.301616D+00     -0.100608D+01

 Dipole polarizability, Alpha (input orientation).
 (esu units = cm**3 , SI units = C**2 m**2 J**-1)
 Alpha(0;0):
               (au)            (10**-24 esu)      (10**-40 SI)
   iso        0.233968D+02      0.346705D+01      0.385761D+01
   aniso      0.381111D+02      0.564749D+01      0.628368D+01
   xx         0.106931D+02      0.158455D+01      0.176305D+01
   yx         0.000000D+00      0.000000D+00      0.000000D+00
   yy         0.106931D+02      0.158455D+01      0.176305D+01
   zx         0.000000D+00      0.000000D+00      0.000000D+00
   zy         0.000000D+00      0.000000D+00      0.000000D+00
   zz         0.488042D+02      0.723204D+01      0.804673D+01

 ----------------------------------------------------------------------

 Dipole orientation:
     8          0.00000000          0.00000000          0.63583365
     6         -0.00000000         -0.00000000         -1.61704399
    16         -0.00000000         -0.00000000         -4.68796803

 Electric dipole moment (dipole orientation):
 (Debye = 10**-18 statcoulomb cm , SI units = C m)
                  (au)            (Debye)         (10**-30 SI)
   Tot        0.118665D+00      0.301616D+00      0.100608D+01
   x          0.000000D+00      0.000000D+00      0.000000D+00
   y          0.000000D+00      0.000000D+00      0.000000D+00
   z          0.118665D+00      0.301616D+00      0.100608D+01

 Dipole polarizability, Alpha (dipole orientation).
 (esu units = cm**3 , SI units = C**2 m**2 J**-1)
 Alpha(0;0):
               (au)            (10**-24 esu)      (10**-40 SI)
   iso        0.233968D+02      0.346705D+01      0.385761D+01
   aniso      0.381111D+02      0.564749D+01      0.628368D+01
   xx         0.106931D+02      0.158455D+01      0.176305D+01
   yx         0.000000D+00      0.000000D+00      0.000000D+00
   yy         0.106931D+02      0.158455D+01      0.176305D+01
   zx         0.000000D+00      0.000000D+00      0.000000D+00
   zy         0.000000D+00      0.000000D+00      0.000000D+00
   zz         0.488042D+02      0.723204D+01      0.804673D+01

 ----------------------------------------------------------------------

 Test job not archived.
 1\1\WWW.WCSS.PL-BEM-WN1469\Freq\RMP2-FC\3-21G\C1O1S1\ROOT\11-May-2022\
 0\\#P Geom=AllCheck Guess=TCheck SCRF=Check Test GenChk RMP2(FC)/3-21G
  Freq\\Arkadiusz Rembiszewski\\0,1\O,0.,0.,-0.3364686762\C,0.,0.,0.855
 7028282\S,0.,0.,2.4807658481\\Version=EM64L-G16RevC.01\State=1-SG\HF=-
 507.6616084\MP2=-507.9539811\RMSD=6.655e-10\RMSF=2.482e-04\ZeroPoint=0
 .0086511\Thermal=0.0115311\ETot=-507.94245\HTot=-507.9415058\GTot=-507
 .9679178\Dipole=0.,0.,-0.1186647\DipoleDeriv=-0.0679546,0.,0.,0.,-0.06
 79546,0.,0.,0.,-1.1416827,0.1564484,0.,0.,0.,0.1564484,0.,0.,0.,1.9012
 141,-0.0884939,0.,0.,0.,-0.0884939,0.,0.,0.,-0.7595314\Polar=10.693073
 6,0.,10.6930736,0.,0.,48.8042197\PG=C*V [C*(O1C1S1)]\NImag=0\\0.029152
 68,0.,0.02915268,0.,0.,0.90843406,-0.05062113,0.,0.,0.08795461,0.,-0.0
 5062113,0.,0.,0.08795461,0.,0.,-0.87259002,0.,0.,1.24716227,0.02146845
 ,0.,0.,-0.03733348,0.,0.,0.01586503,0.,0.02146845,0.,0.,-0.03733348,0.
 ,0.,0.01586503,0.,0.,-0.03584404,0.,0.,-0.37457225,0.,0.,0.41041629\\0
 .,0.,0.00025056,0.,0.,-0.00060505,0.,0.,0.00035449\\\@


 IF YOU PERCEIVE THAT THERE ARE FOUR POSSIBLE WAYS IN
 WHICH A PROCEDURE CAN GO WRONG AND CIRCUMVENT THESE, 
 THEN A FIFTH WAY WILL DEVELOP.

                              -- MURPHY'S TWELFTH LAW
 Job cpu time:       0 days  0 hours  0 minutes 13.2 seconds.
 Elapsed time:       0 days  0 hours  0 minutes  4.1 seconds.
 File lengths (MBytes):  RWF=     21 Int=      0 D2E=      0 Chk=      1 Scr=      1
 Normal termination of Gaussian 16 at Wed May 11 08:21:59 2022.
