 Entering Gaussian System, Link 0=/usr/local/gaussian/2016-C.01/g16/g16
 Initial command:
 /usr/local/gaussian/2016-C.01/g16/l1.exe "/scratch/pbs.4261667.ossachilles/Gau-69070.inp" -scrdir="/scratch/pbs.4261667.ossachilles/"
 Entering Link 1 = /usr/local/gaussian/2016-C.01/g16/l1.exe PID=     69071.
  
 Copyright (c) 1988-2019, Gaussian, Inc.  All Rights Reserved.
  
 This is part of the Gaussian(R) 16 program.  It is based on
 the Gaussian(R) 09 system (copyright 2009, Gaussian, Inc.),
 the Gaussian(R) 03 system (copyright 2003, Gaussian, Inc.),
 the Gaussian(R) 98 system (copyright 1998, Gaussian, Inc.),
 the Gaussian(R) 94 system (copyright 1995, Gaussian, Inc.),
 the Gaussian 92(TM) system (copyright 1992, Gaussian, Inc.),
 the Gaussian 90(TM) system (copyright 1990, Gaussian, Inc.),
 the Gaussian 88(TM) system (copyright 1988, Gaussian, Inc.),
 the Gaussian 86(TM) system (copyright 1986, Carnegie Mellon
 University), and the Gaussian 82(TM) system (copyright 1983,
 Carnegie Mellon University). Gaussian is a federally registered
 trademark of Gaussian, Inc.
  
 This software contains proprietary and confidential information,
 including trade secrets, belonging to Gaussian, Inc.
  
 This software is provided under written license and may be
 used, copied, transmitted, or stored only in accord with that
 written license.
  
 The following legend is applicable only to US Government
 contracts under FAR:
  
                    RESTRICTED RIGHTS LEGEND
  
 Use, reproduction and disclosure by the US Government is
 subject to restrictions as set forth in subparagraphs (a)
 and (c) of the Commercial Computer Software - Restricted
 Rights clause in FAR 52.227-19.
  
 Gaussian, Inc.
 340 Quinnipiac St., Bldg. 40, Wallingford CT 06492
  
  
 ---------------------------------------------------------------
 Warning -- This program may not be used in any manner that
 competes with the business of Gaussian, Inc. or will provide
 assistance to any competitor of Gaussian, Inc.  The licensee
 of this program is prohibited from giving any competitor of
 Gaussian, Inc. access to this program.  By using this program,
 the user acknowledges that Gaussian, Inc. is engaged in the
 business of creating and licensing software in the field of
 computational chemistry and represents and warrants to the
 licensee that it is not a competitor of Gaussian, Inc. and that
 it will not use this program in any manner prohibited above.
 ---------------------------------------------------------------
  

 Cite this work as:
 Gaussian 16, Revision C.01,
 M. J. Frisch, G. W. Trucks, H. B. Schlegel, G. E. Scuseria, 
 M. A. Robb, J. R. Cheeseman, G. Scalmani, V. Barone, 
 G. A. Petersson, H. Nakatsuji, X. Li, M. Caricato, A. V. Marenich, 
 J. Bloino, B. G. Janesko, R. Gomperts, B. Mennucci, H. P. Hratchian, 
 J. V. Ortiz, A. F. Izmaylov, J. L. Sonnenberg, D. Williams-Young, 
 F. Ding, F. Lipparini, F. Egidi, J. Goings, B. Peng, A. Petrone, 
 T. Henderson, D. Ranasinghe, V. G. Zakrzewski, J. Gao, N. Rega, 
 G. Zheng, W. Liang, M. Hada, M. Ehara, K. Toyota, R. Fukuda, 
 J. Hasegawa, M. Ishida, T. Nakajima, Y. Honda, O. Kitao, H. Nakai, 
 T. Vreven, K. Throssell, J. A. Montgomery, Jr., J. E. Peralta, 
 F. Ogliaro, M. J. Bearpark, J. J. Heyd, E. N. Brothers, K. N. Kudin, 
 V. N. Staroverov, T. A. Keith, R. Kobayashi, J. Normand, 
 K. Raghavachari, A. P. Rendell, J. C. Burant, S. S. Iyengar, 
 J. Tomasi, M. Cossi, J. M. Millam, M. Klene, C. Adamo, R. Cammi, 
 J. W. Ochterski, R. L. Martin, K. Morokuma, O. Farkas, 
 J. B. Foresman, and D. J. Fox, Gaussian, Inc., Wallingford CT, 2019.
 
 ******************************************
 Gaussian 16:  EM64L-G16RevC.01  3-Jul-2019
                15-Jun-2022 
 ******************************************
 %nproc=1
 Will use up to    1 processors via shared memory.
 %mem=2000MB
 Default route: MAXDISK=1700GB
 -----------------------------------
 #p hf/6-31g* opt(maxcycle=100) freq
 -----------------------------------
 1/6=100,18=20,19=15,38=1/1,3;
 2/9=110,12=2,17=6,18=5,40=1/2;
 3/5=1,6=6,7=1,11=9,25=1,30=1,71=1/1,2,3;
 4//1;
 5/5=2,38=5/2;
 6/7=2,8=2,9=2,10=2,28=1/1;
 7//1,2,3,16;
 1/6=100,18=20,19=15/3(2);
 2/9=110/2;
 99//99;
 2/9=110/2;
 3/5=1,6=6,7=1,11=9,25=1,30=1,71=1/1,2,3;
 4/5=5,16=3,69=1/1;
 5/5=2,38=5/2;
 7//1,2,3,16;
 1/6=100,18=20,19=15/3(-5);
 2/9=110/2;
 6/7=2,8=2,9=2,10=2,19=2,28=1/1;
 99/9=1/99;
 Leave Link    1 at Wed Jun 15 08:25:58 2022, MaxMem=   262144000 cpu:               0.1 elap:               0.1
 (Enter /usr/local/gaussian/2016-C.01/g16/l101.exe)
 ------------
 rembiszewski
 ------------
 Symbolic Z-matrix:
 Charge =  0 Multiplicity = 1
 o
 h                    1    ho2
 h                    1    ho3      2    hoh3
 h                    2    hh4      1    hho4     3    dih4     0
 cl                   4    clh5     2    clhh5    1    dih5     0
       Variables:
  ho2                   0.95                     
  ho3                   0.95                     
  hoh3                109.471                    
  hh4                   1.5                      
  hho4                109.471                    
  dih4                120.                       
  clh5                  1.008                    
  clhh5               179.                       
  dih5                180.                       
 
     2 tetrahedral angles replaced.
 Add virtual bond connecting atoms H4         and H2         Dist= 2.83D+00.
 ITRead=  0  0  0  0  0
 MicOpt= -1 -1 -1 -1 -1
 NAtoms=      5 NQM=        5 NQMF=       0 NMMI=      0 NMMIF=      0
                NMic=       0 NMicF=      0.
                    Isotopes and Nuclear Properties:
 (Nuclear quadrupole moments (NQMom) in fm**2, nuclear magnetic moments (NMagM)
  in nuclear magnetons)

  Atom         1           2           3           4           5
 IAtWgt=          16           1           1           1          35
 AtmWgt=  15.9949146   1.0078250   1.0078250   1.0078250  34.9688527
 NucSpn=           0           1           1           1           3
 AtZEff=  -0.0000000  -0.0000000  -0.0000000  -0.0000000  -0.0000000
 NQMom=    0.0000000   0.0000000   0.0000000   0.0000000  -8.1650000
 NMagM=    0.0000000   2.7928460   2.7928460   2.7928460   0.8218740
 AtZNuc=   8.0000000   1.0000000   1.0000000   1.0000000  17.0000000
 Leave Link  101 at Wed Jun 15 08:25:58 2022, MaxMem=   262144000 cpu:               0.1 elap:               0.2
 (Enter /usr/local/gaussian/2016-C.01/g16/l103.exe)

 GradGradGradGradGradGradGradGradGradGradGradGradGradGradGradGradGradGrad
 Berny optimization.
 Initialization pass.
                           ----------------------------
                           !    Initial Parameters    !
                           ! (Angstroms and Degrees)  !
 --------------------------                            --------------------------
 ! Name  Definition              Value          Derivative Info.                !
 --------------------------------------------------------------------------------
 ! R1    R(1,2)                  0.95           estimate D2E/DX2                !
 ! R2    R(1,3)                  0.95           estimate D2E/DX2                !
 ! R3    R(2,4)                  1.5            estimate D2E/DX2                !
 ! R4    R(4,5)                  1.008          estimate D2E/DX2                !
 ! A1    A(2,1,3)              109.4712         estimate D2E/DX2                !
 ! A2    A(1,2,4)              109.4712         estimate D2E/DX2                !
 ! A3    L(2,4,5,3,-1)         180.7972         estimate D2E/DX2                !
 ! A4    L(2,4,5,3,-2)         181.2598         estimate D2E/DX2                !
 ! D1    D(3,1,2,4)            120.0            estimate D2E/DX2                !
 --------------------------------------------------------------------------------
 Trust Radius=3.00D-01 FncErr=1.00D-07 GrdErr=1.00D-07 EigMax=2.50D+02 EigMin=1.00D-04
 Number of steps in this run=    100 maximum allowed number of steps=    100.
 GradGradGradGradGradGradGradGradGradGradGradGradGradGradGradGradGradGrad

 Leave Link  103 at Wed Jun 15 08:25:59 2022, MaxMem=   262144000 cpu:               0.0 elap:               0.1
 (Enter /usr/local/gaussian/2016-C.01/g16/l202.exe)
                          Input orientation:                          
 ---------------------------------------------------------------------
 Center     Atomic      Atomic             Coordinates (Angstroms)
 Number     Number       Type             X           Y           Z
 ---------------------------------------------------------------------
      1          8           0        0.000000    0.000000    0.000000
      2          1           0        0.000000    0.000000    0.950000
      3          1           0        0.895669    0.000000   -0.316667
      4          1           0       -0.707107    1.224745    1.450000
      5         17           0       -1.179278    2.042570    1.802535
 ---------------------------------------------------------------------
                    Distance matrix (angstroms):
                    1          2          3          4          5
     1  O    0.000000
     2  H    0.950000   0.000000
     3  H    0.950000   1.551344   0.000000
     4  H    2.025463   1.500000   2.681418   0.000000
     5  Cl   2.968488   2.507908   3.601182   1.008000   0.000000
 Stoichiometry    ClH3O
 Framework group  C1[X(ClH3O)]
 Deg. of freedom     9
 Full point group                 C1      NOp   1
 Largest Abelian subgroup         C1      NOp   1
 Largest concise Abelian subgroup C1      NOp   1
                         Standard orientation:                         
 ---------------------------------------------------------------------
 Center     Atomic      Atomic             Coordinates (Angstroms)
 Number     Number       Type             X           Y           Z
 ---------------------------------------------------------------------
      1          8           0       -1.871910   -0.026960   -0.112670
      2          1           0       -1.308935    0.659904    0.224639
      3          1           0       -2.446210   -0.333915    0.579037
      4          1           0        0.125502    0.243645    0.086370
      5         17           0        1.094407   -0.020821    0.000665
 ---------------------------------------------------------------------
 Rotational constants (GHZ):         425.8356571           4.7730443           4.7694013
 Leave Link  202 at Wed Jun 15 08:25:59 2022, MaxMem=   262144000 cpu:               0.0 elap:               0.1
 (Enter /usr/local/gaussian/2016-C.01/g16/l301.exe)
 Standard basis: 6-31G(d) (6D, 7F)
 Ernie: Thresh=  0.10000D-02 Tol=  0.10000D-05 Strict=F.
 There are    40 symmetry adapted cartesian basis functions of A   symmetry.
 There are    40 symmetry adapted basis functions of A   symmetry.
    40 basis functions,    92 primitive gaussians,    40 cartesian basis functions
    14 alpha electrons       14 beta electrons
       nuclear repulsion energy        51.1475752671 Hartrees.
 IExCor=    0 DFT=F Ex=HF Corr=None ExCW=0 ScaHFX=  1.000000
 ScaDFX=  1.000000  1.000000  1.000000  1.000000 ScalE2=  1.000000  1.000000
 IRadAn=      5 IRanWt=     -1 IRanGd=            0 ICorTp=0 IEmpDi=  4
 NAtoms=    5 NActive=    5 NUniq=    5 SFac= 1.00D+00 NAtFMM=   60 NAOKFM=F Big=F
 Integral buffers will be    131072 words long.
 Raffenetti 1 integral format.
 Two-electron integral symmetry is turned on.
 Leave Link  301 at Wed Jun 15 08:25:59 2022, MaxMem=   262144000 cpu:               0.1 elap:               0.1
 (Enter /usr/local/gaussian/2016-C.01/g16/l302.exe)
 NPDir=0 NMtPBC=     1 NCelOv=     1 NCel=       1 NClECP=     1 NCelD=      1
         NCelK=      1 NCelE2=     1 NClLst=     1 CellRange=     0.0.
 One-electron integrals computed using PRISM.
 One-electron integral symmetry used in STVInt
 NBasis=    40 RedAO= T EigKep=  1.24D-02  NBF=    40
 NBsUse=    40 1.00D-06 EigRej= -1.00D+00 NBFU=    40
 Leave Link  302 at Wed Jun 15 08:25:59 2022, MaxMem=   262144000 cpu:               0.1 elap:               0.2
 (Enter /usr/local/gaussian/2016-C.01/g16/l303.exe)
 DipDrv:  MaxL=1.
 Leave Link  303 at Wed Jun 15 08:25:59 2022, MaxMem=   262144000 cpu:               0.0 elap:               0.1
 (Enter /usr/local/gaussian/2016-C.01/g16/l401.exe)
 ExpMin= 1.43D-01 ExpMax= 2.52D+04 ExpMxC= 3.78D+03 IAcc=3 IRadAn=         5 AccDes= 0.00D+00
 Harris functional with IExCor=  205 and IRadAn=       5 diagonalized for initial guess.
 HarFok:  IExCor=  205 AccDes= 0.00D+00 IRadAn=         5 IDoV= 1 UseB2=F ITyADJ=14
 ICtDFT=  3500011 ScaDFX=  1.000000  1.000000  1.000000  1.000000
 FoFCou: FMM=F IPFlag=           0 FMFlag=      100000 FMFlg1=           0
         NFxFlg=           0 DoJE=T BraDBF=F KetDBF=T FulRan=T
         wScrn=  0.000000 ICntrl=       500 IOpCl=  0 I1Cent=   200000004 NGrid=           0
         NMat0=    1 NMatS0=      1 NMatT0=    0 NMatD0=    1 NMtDS0=    0 NMtDT0=    0
 Petite list used in FoFCou.
 Harris En= -535.630697654812    
 JPrj=0 DoOrth=F DoCkMO=F.
 Leave Link  401 at Wed Jun 15 08:26:00 2022, MaxMem=   262144000 cpu:               0.5 elap:               0.6
 (Enter /usr/local/gaussian/2016-C.01/g16/l502.exe)
 Keep R1 ints in memory in canonical form, NReq=1171990.
 FoFCou: FMM=F IPFlag=           0 FMFlag=           0 FMFlg1=           0
         NFxFlg=           0 DoJE=F BraDBF=F KetDBF=F FulRan=T
         wScrn=  0.000000 ICntrl=       600 IOpCl=  0 I1Cent=           0 NGrid=           0
         NMat0=    1 NMatS0=    820 NMatT0=    0 NMatD0=    1 NMtDS0=    0 NMtDT0=    0
 Symmetry not used in FoFCou.
 Two-electron integral symmetry not used.
 Closed shell SCF:
 Using DIIS extrapolation, IDIIS=  1040.
 NGot=   262144000 LenX=   261803239 LenY=   261801198
 Requested convergence on RMS density matrix=1.00D-08 within 128 cycles.
 Requested convergence on MAX density matrix=1.00D-06.
 Requested convergence on             energy=1.00D-06.
 No special actions if energy rises.

 Cycle   1  Pass 1  IDiag  1:
 E= -535.887073864162    
 DIIS: error= 1.02D-01 at cycle   1 NSaved=   1.
 NSaved= 1 IEnMin= 1 EnMin= -535.887073864162     IErMin= 1 ErrMin= 1.02D-01
 ErrMax= 1.02D-01  0.00D+00 EMaxC= 1.00D-01 BMatC= 2.18D-01 BMatP= 2.18D-01
 IDIUse=3 WtCom= 0.00D+00 WtEn= 1.00D+00
 Coeff-Com:  0.100D+01
 Coeff-En:   0.100D+01
 Coeff:      0.100D+01
 Gap=     0.690 Goal=   None    Shift=    0.000
 GapD=    0.690 DampG=2.000 DampE=0.250 DampFc=0.5000 IDamp=-1.
 Damping current iteration by 5.00D-01
 RMSDP=8.82D-03 MaxDP=1.17D-01              OVMax= 8.88D-02

 Cycle   2  Pass 1  IDiag  1:
 E= -535.938085578432     Delta-E=       -0.051011714270 Rises=F Damp=T
 DIIS: error= 5.25D-02 at cycle   2 NSaved=   2.
 NSaved= 2 IEnMin= 2 EnMin= -535.938085578432     IErMin= 2 ErrMin= 5.25D-02
 ErrMax= 5.25D-02  0.00D+00 EMaxC= 1.00D-01 BMatC= 3.92D-02 BMatP= 2.18D-01
 IDIUse=3 WtCom= 4.75D-01 WtEn= 5.25D-01
 Coeff-Com: -0.501D+00 0.150D+01
 Coeff-En:   0.000D+00 0.100D+01
 Coeff:     -0.238D+00 0.124D+01
 Gap=     0.703 Goal=   None    Shift=    0.000
 RMSDP=2.74D-03 MaxDP=5.31D-02 DE=-5.10D-02 OVMax= 2.85D-02

 Cycle   3  Pass 1  IDiag  1:
 E= -535.981783828462     Delta-E=       -0.043698250030 Rises=F Damp=F
 DIIS: error= 1.64D-03 at cycle   3 NSaved=   3.
 NSaved= 3 IEnMin= 3 EnMin= -535.981783828462     IErMin= 3 ErrMin= 1.64D-03
 ErrMax= 1.64D-03  0.00D+00 EMaxC= 1.00D-01 BMatC= 1.52D-04 BMatP= 3.92D-02
 IDIUse=3 WtCom= 9.84D-01 WtEn= 1.64D-02
 Coeff-Com:  0.280D-01-0.888D-01 0.106D+01
 Coeff-En:   0.000D+00 0.000D+00 0.100D+01
 Coeff:      0.276D-01-0.873D-01 0.106D+01
 Gap=     0.667 Goal=   None    Shift=    0.000
 RMSDP=4.47D-04 MaxDP=4.01D-03 DE=-4.37D-02 OVMax= 3.61D-03

 Cycle   4  Pass 1  IDiag  1:
 E= -535.981952928366     Delta-E=       -0.000169099904 Rises=F Damp=F
 DIIS: error= 7.21D-04 at cycle   4 NSaved=   4.
 NSaved= 4 IEnMin= 4 EnMin= -535.981952928366     IErMin= 4 ErrMin= 7.21D-04
 ErrMax= 7.21D-04  0.00D+00 EMaxC= 1.00D-01 BMatC= 1.03D-05 BMatP= 1.52D-04
 IDIUse=3 WtCom= 9.93D-01 WtEn= 7.21D-03
 Coeff-Com:  0.182D-02 0.139D-02-0.213D+00 0.121D+01
 Coeff-En:   0.000D+00 0.000D+00 0.000D+00 0.100D+01
 Coeff:      0.181D-02 0.138D-02-0.212D+00 0.121D+01
 Gap=     0.666 Goal=   None    Shift=    0.000
 RMSDP=1.73D-04 MaxDP=1.59D-03 DE=-1.69D-04 OVMax= 1.67D-03

 Cycle   5  Pass 1  IDiag  1:
 E= -535.981971599668     Delta-E=       -0.000018671302 Rises=F Damp=F
 DIIS: error= 1.75D-04 at cycle   5 NSaved=   5.
 NSaved= 5 IEnMin= 5 EnMin= -535.981971599668     IErMin= 5 ErrMin= 1.75D-04
 ErrMax= 1.75D-04  0.00D+00 EMaxC= 1.00D-01 BMatC= 6.57D-07 BMatP= 1.03D-05
 IDIUse=3 WtCom= 9.98D-01 WtEn= 1.75D-03
 Coeff-Com: -0.746D-03 0.300D-02-0.636D-01 0.880D-02 0.105D+01
 Coeff-En:   0.000D+00 0.000D+00 0.000D+00 0.000D+00 0.100D+01
 Coeff:     -0.745D-03 0.299D-02-0.635D-01 0.879D-02 0.105D+01
 Gap=     0.667 Goal=   None    Shift=    0.000
 RMSDP=4.84D-05 MaxDP=3.57D-04 DE=-1.87D-05 OVMax= 5.80D-04

 Cycle   6  Pass 1  IDiag  1:
 E= -535.981973028021     Delta-E=       -0.000001428353 Rises=F Damp=F
 DIIS: error= 4.55D-05 at cycle   6 NSaved=   6.
 NSaved= 6 IEnMin= 6 EnMin= -535.981973028021     IErMin= 6 ErrMin= 4.55D-05
 ErrMax= 4.55D-05  0.00D+00 EMaxC= 1.00D-01 BMatC= 3.43D-08 BMatP= 6.57D-07
 IDIUse=1 WtCom= 1.00D+00 WtEn= 0.00D+00
 Coeff-Com:  0.107D-03-0.510D-03 0.181D-01-0.559D-01-0.191D+00 0.123D+01
 Coeff:      0.107D-03-0.510D-03 0.181D-01-0.559D-01-0.191D+00 0.123D+01
 Gap=     0.667 Goal=   None    Shift=    0.000
 RMSDP=1.34D-05 MaxDP=9.54D-05 DE=-1.43D-06 OVMax= 1.89D-04

 Cycle   7  Pass 1  IDiag  1:
 E= -535.981973123832     Delta-E=       -0.000000095811 Rises=F Damp=F
 DIIS: error= 6.07D-06 at cycle   7 NSaved=   7.
 NSaved= 7 IEnMin= 7 EnMin= -535.981973123832     IErMin= 7 ErrMin= 6.07D-06
 ErrMax= 6.07D-06  0.00D+00 EMaxC= 1.00D-01 BMatC= 1.57D-09 BMatP= 3.43D-08
 IDIUse=1 WtCom= 1.00D+00 WtEn= 0.00D+00
 Coeff-Com:  0.538D-04-0.122D-03-0.113D-02 0.119D-01-0.150D-02-0.286D+00
 Coeff-Com:  0.128D+01
 Coeff:      0.538D-04-0.122D-03-0.113D-02 0.119D-01-0.150D-02-0.286D+00
 Coeff:      0.128D+01
 Gap=     0.667 Goal=   None    Shift=    0.000
 RMSDP=2.61D-06 MaxDP=2.49D-05 DE=-9.58D-08 OVMax= 3.85D-05

 Cycle   8  Pass 1  IDiag  1:
 E= -535.981973128062     Delta-E=       -0.000000004229 Rises=F Damp=F
 DIIS: error= 1.08D-06 at cycle   8 NSaved=   8.
 NSaved= 8 IEnMin= 8 EnMin= -535.981973128062     IErMin= 8 ErrMin= 1.08D-06
 ErrMax= 1.08D-06  0.00D+00 EMaxC= 1.00D-01 BMatC= 7.08D-11 BMatP= 1.57D-09
 IDIUse=1 WtCom= 1.00D+00 WtEn= 0.00D+00
 Coeff-Com: -0.179D-04 0.550D-04-0.607D-03-0.288D-03 0.110D-01 0.835D-02
 Coeff-Com: -0.278D+00 0.126D+01
 Coeff:     -0.179D-04 0.550D-04-0.607D-03-0.288D-03 0.110D-01 0.835D-02
 Coeff:     -0.278D+00 0.126D+01
 Gap=     0.667 Goal=   None    Shift=    0.000
 RMSDP=5.20D-07 MaxDP=4.96D-06 DE=-4.23D-09 OVMax= 5.20D-06

 Cycle   9  Pass 1  IDiag  1:
 E= -535.981973128244     Delta-E=       -0.000000000182 Rises=F Damp=F
 DIIS: error= 3.03D-07 at cycle   9 NSaved=   9.
 NSaved= 9 IEnMin= 9 EnMin= -535.981973128244     IErMin= 9 ErrMin= 3.03D-07
 ErrMax= 3.03D-07  0.00D+00 EMaxC= 1.00D-01 BMatC= 3.31D-12 BMatP= 7.08D-11
 IDIUse=1 WtCom= 1.00D+00 WtEn= 0.00D+00
 Coeff-Com: -0.167D-05 0.196D-05 0.119D-03-0.692D-03-0.782D-03 0.172D-01
 Coeff-Com: -0.627D-01-0.608D-01 0.111D+01
 Coeff:     -0.167D-05 0.196D-05 0.119D-03-0.692D-03-0.782D-03 0.172D-01
 Coeff:     -0.627D-01-0.608D-01 0.111D+01
 Gap=     0.667 Goal=   None    Shift=    0.000
 RMSDP=1.26D-07 MaxDP=1.25D-06 DE=-1.82D-10 OVMax= 1.45D-06

 Cycle  10  Pass 1  IDiag  1:
 E= -535.981973128252     Delta-E=       -0.000000000008 Rises=F Damp=F
 DIIS: error= 9.58D-08 at cycle  10 NSaved=  10.
 NSaved=10 IEnMin=10 EnMin= -535.981973128252     IErMin=10 ErrMin= 9.58D-08
 ErrMax= 9.58D-08  0.00D+00 EMaxC= 1.00D-01 BMatC= 1.94D-13 BMatP= 3.31D-12
 IDIUse=1 WtCom= 1.00D+00 WtEn= 0.00D+00
 Coeff-Com:  0.131D-05-0.294D-05 0.124D-05 0.136D-03-0.313D-03-0.330D-02
 Coeff-Com:  0.220D-01-0.376D-01-0.230D+00 0.125D+01
 Coeff:      0.131D-05-0.294D-05 0.124D-05 0.136D-03-0.313D-03-0.330D-02
 Coeff:      0.220D-01-0.376D-01-0.230D+00 0.125D+01
 Gap=     0.667 Goal=   None    Shift=    0.000
 RMSDP=3.27D-08 MaxDP=3.30D-07 DE=-7.50D-12 OVMax= 4.84D-07

 Cycle  11  Pass 1  IDiag  1:
 E= -535.981973128252     Delta-E=       -0.000000000000 Rises=F Damp=F
 DIIS: error= 2.65D-08 at cycle  11 NSaved=  11.
 NSaved=11 IEnMin=11 EnMin= -535.981973128252     IErMin=11 ErrMin= 2.65D-08
 ErrMax= 2.65D-08  0.00D+00 EMaxC= 1.00D-01 BMatC= 1.36D-14 BMatP= 1.94D-13
 IDIUse=1 WtCom= 1.00D+00 WtEn= 0.00D+00
 Coeff-Com: -0.433D-07 0.234D-06-0.883D-05 0.270D-04 0.118D-03-0.742D-03
 Coeff-Com:  0.593D-03 0.125D-01-0.428D-01-0.216D+00 0.125D+01
 Coeff:     -0.433D-07 0.234D-06-0.883D-05 0.270D-04 0.118D-03-0.742D-03
 Coeff:      0.593D-03 0.125D-01-0.428D-01-0.216D+00 0.125D+01
 Gap=     0.667 Goal=   None    Shift=    0.000
 RMSDP=9.43D-09 MaxDP=9.69D-08 DE=-2.27D-13 OVMax= 1.53D-07

 SCF Done:  E(RHF) =  -535.981973128     A.U. after   11 cycles
            NFock= 11  Conv=0.94D-08     -V/T= 1.9992
 KE= 5.364312580354D+02 PE=-1.378494628948D+03 EE= 2.549338225167D+02
 Leave Link  502 at Wed Jun 15 08:26:00 2022, MaxMem=   262144000 cpu:               0.2 elap:               0.3
 (Enter /usr/local/gaussian/2016-C.01/g16/l601.exe)
 Copying SCF densities to generalized density rwf, IOpCl= 0 IROHF=0.

 **********************************************************************

            Population analysis using the SCF Density.

 **********************************************************************

 Orbital symmetries:
       Occupied  (A) (A) (A) (A) (A) (A) (A) (A) (A) (A) (A) (A)
                 (A) (A)
       Virtual   (A) (A) (A) (A) (A) (A) (A) (A) (A) (A) (A) (A)
                 (A) (A) (A) (A) (A) (A) (A) (A) (A) (A) (A) (A)
                 (A) (A)
 The electronic state is 1-A.
 Alpha  occ. eigenvalues -- -104.81190 -20.58465 -10.55939  -8.03167  -8.02353
 Alpha  occ. eigenvalues --   -8.02349  -1.37419  -1.18884  -0.76266  -0.66985
 Alpha  occ. eigenvalues --   -0.59107  -0.52490  -0.47718  -0.47454
 Alpha virt. eigenvalues --    0.19227   0.27863   0.32392   0.52465   0.62155
 Alpha virt. eigenvalues --    0.62967   0.64371   1.02196   1.06884   1.08730
 Alpha virt. eigenvalues --    1.09596   1.13614   1.14089   1.14272   1.19785
 Alpha virt. eigenvalues --    1.27139   1.38264   1.40833   1.93961   2.00406
 Alpha virt. eigenvalues --    2.04202   2.11837   2.61114   2.95056   3.96845
 Alpha virt. eigenvalues --    4.69222
          Condensed to atoms (all electrons):
               1          2          3          4          5
     1  O    8.344352   0.251147   0.266645   0.019269  -0.019208
     2  H    0.251147   0.338628  -0.012368  -0.015720   0.000033
     3  H    0.266645  -0.012368   0.294038  -0.000540   0.000751
     4  H    0.019269  -0.015720  -0.000540   0.667549   0.144224
     5  Cl  -0.019208   0.000033   0.000751   0.144224  17.086965
 Mulliken charges:
               1
     1  O   -0.862206
     2  H    0.438280
     3  H    0.451474
     4  H    0.185218
     5  Cl  -0.212765
 Sum of Mulliken charges =  -0.00000
 Mulliken charges with hydrogens summed into heavy atoms:
               1
     1  O    0.027547
     5  Cl  -0.027547
 Electronic spatial extent (au):  <R**2>=            247.0377
 Charge=             -0.0000 electrons
 Dipole moment (field-independent basis, Debye):
    X=             -1.5007    Y=              0.8859    Z=              2.0388  Tot=              2.6821
 Quadrupole moment (field-independent basis, Debye-Ang):
   XX=            -18.4160   YY=            -19.2511   ZZ=            -19.7628
   XY=             -0.1089   XZ=             -4.5014   YZ=             -0.0623
 Traceless Quadrupole moment (field-independent basis, Debye-Ang):
   XX=              0.7273   YY=             -0.1078   ZZ=             -0.6195
   XY=             -0.1089   XZ=             -4.5014   YZ=             -0.0623
 Octapole moment (field-independent basis, Debye-Ang**2):
  XXX=            -11.4156  YYY=              1.0745  ZZZ=              1.4162  XYY=             -3.5821
  XXY=             -4.3363  XXZ=              9.6299  XZZ=             -3.8156  YZZ=              0.0315
  YYZ=              0.6380  XYZ=              0.6761
 Hexadecapole moment (field-independent basis, Debye-Ang**3):
 XXXX=           -211.8955 YYYY=            -20.8637 ZZZZ=            -21.1076 XXXY=              8.9084
 XXXZ=            -25.4188 YYYX=             -0.4263 YYYZ=              0.0902 ZZZX=             -3.3085
 ZZZY=             -0.1629 XXYY=            -43.4485 XXZZ=            -42.5567 YYZZ=             -6.9711
 XXYZ=             -1.7780 YYXZ=             -1.2852 ZZXY=              0.5566
 N-N= 5.114757526709D+01 E-N=-1.378494628926D+03  KE= 5.364312580354D+02
 No NMR shielding tensors so no spin-rotation constants.
 Leave Link  601 at Wed Jun 15 08:26:01 2022, MaxMem=   262144000 cpu:               0.1 elap:               0.2
 (Enter /usr/local/gaussian/2016-C.01/g16/l701.exe)
 ... and contract with generalized density number  0.
 Compute integral first derivatives.
 Leave Link  701 at Wed Jun 15 08:26:01 2022, MaxMem=   262144000 cpu:               0.1 elap:               0.2
 (Enter /usr/local/gaussian/2016-C.01/g16/l702.exe)
 L702 exits ... SP integral derivatives will be done elsewhere.
 Leave Link  702 at Wed Jun 15 08:26:01 2022, MaxMem=   262144000 cpu:               0.0 elap:               0.0
 (Enter /usr/local/gaussian/2016-C.01/g16/l703.exe)
 Integral derivatives from FoFJK, PRISM(SPDF).
 Compute integral first derivatives, UseDBF=F ICtDFT=           0.
 Calling FoFJK, ICntrl=      2127 FMM=F ISym2X=0 I1Cent= 0 IOpClX= 0 NMat=1 NMatS=1 NMatT=0.
 FoFJK:  IHMeth= 1 ICntrl=    2127 DoSepK=F KAlg= 0 I1Cent=           0 FoldK=F
 IRaf=         0 NMat=       1 IRICut=       1 DoRegI=T DoRafI=F ISym2E= 0 IDoP0=0 IntGTp=1.
 FoFCou: FMM=F IPFlag=           0 FMFlag=      100000 FMFlg1=         800
         NFxFlg=           0 DoJE=F BraDBF=F KetDBF=F FulRan=T
         wScrn=  0.000000 ICntrl=      2127 IOpCl=  0 I1Cent=           0 NGrid=           0
         NMat0=    1 NMatS0=      1 NMatT0=    0 NMatD0=    1 NMtDS0=    0 NMtDT0=    0
 Symmetry not used in FoFCou.
 Leave Link  703 at Wed Jun 15 08:26:01 2022, MaxMem=   262144000 cpu:               0.4 elap:               0.4
 (Enter /usr/local/gaussian/2016-C.01/g16/l716.exe)
 Dipole        =-5.90431537D-01 3.48540102D-01 8.02112956D-01
 ***** Axes restored to original set *****
 -------------------------------------------------------------------
 Center     Atomic                   Forces (Hartrees/Bohr)
 Number     Number              X              Y              Z
 -------------------------------------------------------------------
      1        8          -0.003071946   -0.004130055   -0.003396221
      2        1           0.016360035   -0.016818164   -0.012344722
      3        1          -0.001090566   -0.000151684    0.007388653
      4        1           0.175484651   -0.303727598   -0.137093508
      5       17          -0.187682174    0.324827501    0.145445798
 -------------------------------------------------------------------
 Cartesian Forces:  Max     0.324827501 RMS     0.142484773
 Leave Link  716 at Wed Jun 15 08:26:01 2022, MaxMem=   262144000 cpu:               0.0 elap:               0.1
 (Enter /usr/local/gaussian/2016-C.01/g16/l103.exe)

 GradGradGradGradGradGradGradGradGradGradGradGradGradGradGradGradGradGrad
 Berny optimization.
 FormGI is forming the generalized inverse of G from B-inverse, IUseBI=4.
 Internal  Forces:  Max     0.402326232 RMS     0.134513220
 Search for a local minimum.
 Step number   1 out of a maximum of  100
 All quantities printed in internal units (Hartrees-Bohrs-Radians)
 RMS Force = .13451D+00 SwitMx=.10000D-02 MixMth= 1
 Mixed Optimization -- RFO/linear search
 Second derivative matrix not updated -- first step.
 The second derivative matrix:
                          R1        R2        R3        R4        A1
           R1           0.57681
           R2           0.00000   0.57681
           R3           0.00000   0.00000   0.05943
           R4           0.00000   0.00000   0.00000   0.89889
           A1           0.00000   0.00000   0.00000   0.00000   0.16000
           A2           0.00000   0.00000   0.00000   0.00000   0.00000
           A3           0.00000   0.00000   0.00000   0.00000   0.00000
           A4           0.00000   0.00000   0.00000   0.00000   0.00000
           D1           0.00000   0.00000   0.00000   0.00000   0.00000
                          A2        A3        A4        D1
           A2           0.16000
           A3           0.00000   0.04231
           A4           0.00000   0.00000   0.04231
           D1           0.00000   0.00000   0.00000   0.01690
 ITU=  0
     Eigenvalues ---    0.01690   0.04231   0.04231   0.05943   0.16000
     Eigenvalues ---    0.16000   0.57681   0.57681   0.89889
 RFO step:  Lambda=-1.57371307D-01 EMin= 1.68978630D-02
 Linear search not attempted -- first point.
 Maximum step size (   0.300) exceeded in Quadratic search.
    -- Step size scaled by   0.743
 Iteration  1 RMS(Cart)=  0.08961874 RMS(Int)=  0.02747621
 Iteration  2 RMS(Cart)=  0.02465550 RMS(Int)=  0.00005801
 Iteration  3 RMS(Cart)=  0.00007214 RMS(Int)=  0.00000001
 Iteration  4 RMS(Cart)=  0.00000001 RMS(Int)=  0.00000000
 ITry= 1 IFail=0 DXMaxC= 1.90D-01 DCOld= 1.00D+10 DXMaxT= 3.00D-01 DXLimC= 3.00D+00 Rises=F
 Variable       Old X    -DE/DX   Delta X   Delta X   Delta X     New X
                                 (Linear)    (Quad)   (Total)
    R1        1.79524  -0.00398   0.00000  -0.00403  -0.00403   1.79121
    R2        1.79524  -0.00348   0.00000  -0.00353  -0.00353   1.79171
    R3        2.83459   0.02575   0.00000   0.08823   0.08823   2.92282
    R4        1.90484   0.40233   0.00000   0.28293   0.28293   2.18778
    A1        1.91063  -0.01184   0.00000  -0.02771  -0.02771   1.88292
    A2        1.91063   0.00888   0.00000   0.02079   0.02079   1.93142
    A3        3.15551   0.00777   0.00000   0.02889   0.02889   3.18440
    A4        3.16358   0.00270   0.00000   0.01004   0.01004   3.17362
    D1        2.09440   0.00022   0.00000   0.00096   0.00096   2.09535
         Item               Value     Threshold  Converged?
 Maximum Force            0.402326     0.000450     NO 
 RMS     Force            0.134513     0.000300     NO 
 Maximum Displacement     0.189877     0.001800     NO 
 RMS     Displacement     0.112940     0.001200     NO 
 Predicted change in Energy=-8.056245D-02
 Lowest energy point so far.  Saving SCF results.
 GradGradGradGradGradGradGradGradGradGradGradGradGradGradGradGradGradGrad

 Leave Link  103 at Wed Jun 15 08:26:02 2022, MaxMem=   262144000 cpu:               0.0 elap:               0.1
 (Enter /usr/local/gaussian/2016-C.01/g16/l202.exe)
                          Input orientation:                          
 ---------------------------------------------------------------------
 Center     Atomic      Atomic             Coordinates (Angstroms)
 Number     Number       Type             X           Y           Z
 ---------------------------------------------------------------------
      1          8           0        0.020503   -0.041529   -0.032911
      2          1           0        0.029384   -0.025575    0.914781
      3          1           0        0.920010   -0.037214   -0.332625
      4          1           0       -0.703224    1.228584    1.446402
      5         17           0       -1.257389    2.143048    1.890220
 ---------------------------------------------------------------------
                    Distance matrix (angstroms):
                    1          2          3          4          5
     1  O    0.000000
     2  H    0.947868   0.000000
     3  H    0.948134   1.532765   0.000000
     4  H    2.079743   1.546690   2.720674   0.000000
     5  Cl   3.178650   2.703737   3.799428   1.157722   0.000000
 Stoichiometry    ClH3O
 Framework group  C1[X(ClH3O)]
 Deg. of freedom     9
 Full point group                 C1      NOp   1
 RotChk:  IX=0 Diff= 1.72D-01
 Largest Abelian subgroup         C1      NOp   1
 Largest concise Abelian subgroup C1      NOp   1
                         Standard orientation:                         
 ---------------------------------------------------------------------
 Center     Atomic      Atomic             Coordinates (Angstroms)
 Number     Number       Type             X           Y           Z
 ---------------------------------------------------------------------
      1          8           0       -2.001968   -0.042335   -0.110449
      2          1           0       -1.435475    0.669611    0.155391
      3          1           0       -2.566722   -0.253797    0.621190
      4          1           0        0.049777    0.246834    0.068588
      5         17           0        1.174598   -0.019057    0.002260
 ---------------------------------------------------------------------
 Rotational constants (GHZ):         427.9005756           4.1702509           4.1682936
 Leave Link  202 at Wed Jun 15 08:26:02 2022, MaxMem=   262144000 cpu:               0.0 elap:               0.0
 (Enter /usr/local/gaussian/2016-C.01/g16/l301.exe)
 Standard basis: 6-31G(d) (6D, 7F)
 Ernie: Thresh=  0.10000D-02 Tol=  0.10000D-05 Strict=F.
 There are    40 symmetry adapted cartesian basis functions of A   symmetry.
 There are    40 symmetry adapted basis functions of A   symmetry.
    40 basis functions,    92 primitive gaussians,    40 cartesian basis functions
    14 alpha electrons       14 beta electrons
       nuclear repulsion energy        47.9551904146 Hartrees.
 IExCor=    0 DFT=F Ex=HF Corr=None ExCW=0 ScaHFX=  1.000000
 ScaDFX=  1.000000  1.000000  1.000000  1.000000 ScalE2=  1.000000  1.000000
 IRadAn=      5 IRanWt=     -1 IRanGd=            0 ICorTp=0 IEmpDi=  4
 NAtoms=    5 NActive=    5 NUniq=    5 SFac= 1.00D+00 NAtFMM=   60 NAOKFM=F Big=F
 Integral buffers will be    131072 words long.
 Raffenetti 1 integral format.
 Two-electron integral symmetry is turned on.
 Leave Link  301 at Wed Jun 15 08:26:02 2022, MaxMem=   262144000 cpu:               0.0 elap:               0.1
 (Enter /usr/local/gaussian/2016-C.01/g16/l302.exe)
 NPDir=0 NMtPBC=     1 NCelOv=     1 NCel=       1 NClECP=     1 NCelD=      1
         NCelK=      1 NCelE2=     1 NClLst=     1 CellRange=     0.0.
 One-electron integrals computed using PRISM.
 One-electron integral symmetry used in STVInt
 NBasis=    40 RedAO= T EigKep=  1.86D-02  NBF=    40
 NBsUse=    40 1.00D-06 EigRej= -1.00D+00 NBFU=    40
 Leave Link  302 at Wed Jun 15 08:26:02 2022, MaxMem=   262144000 cpu:               0.1 elap:               0.1
 (Enter /usr/local/gaussian/2016-C.01/g16/l303.exe)
 DipDrv:  MaxL=1.
 Leave Link  303 at Wed Jun 15 08:26:02 2022, MaxMem=   262144000 cpu:               0.0 elap:               0.0
 (Enter /usr/local/gaussian/2016-C.01/g16/l401.exe)
 Initial guess from the checkpoint file:  "/scratch/pbs.4261667.ossachilles/Gau-69071.chk"
 B after Tr=     0.000000    0.000000   -0.000000
         Rot=    0.998334    0.057690   -0.000265   -0.000964 Ang=   6.62 deg.
 Guess basis will be translated and rotated to current coordinates.
 JPrj=2 DoOrth=T DoCkMO=T.
 Generating alternative initial guess.
 ExpMin= 1.43D-01 ExpMax= 2.52D+04 ExpMxC= 3.78D+03 IAcc=3 IRadAn=         5 AccDes= 0.00D+00
 Harris functional with IExCor=  205 and IRadAn=       5 diagonalized for initial guess.
 HarFok:  IExCor=  205 AccDes= 0.00D+00 IRadAn=         5 IDoV= 1 UseB2=F ITyADJ=14
 ICtDFT=  3500011 ScaDFX=  1.000000  1.000000  1.000000  1.000000
 FoFCou: FMM=F IPFlag=           0 FMFlag=      100000 FMFlg1=           0
         NFxFlg=           0 DoJE=T BraDBF=F KetDBF=T FulRan=T
         wScrn=  0.000000 ICntrl=       500 IOpCl=  0 I1Cent=   200000004 NGrid=           0
         NMat0=    1 NMatS0=      1 NMatT0=    0 NMatD0=    1 NMtDS0=    0 NMtDT0=    0
 Petite list used in FoFCou.
 Harris En= -535.700348095197    
 Leave Link  401 at Wed Jun 15 08:26:02 2022, MaxMem=   262144000 cpu:               0.5 elap:               0.5
 (Enter /usr/local/gaussian/2016-C.01/g16/l502.exe)
 Keep R1 ints in memory in canonical form, NReq=1171886.
 FoFCou: FMM=F IPFlag=           0 FMFlag=           0 FMFlg1=           0
         NFxFlg=           0 DoJE=F BraDBF=F KetDBF=F FulRan=T
         wScrn=  0.000000 ICntrl=       600 IOpCl=  0 I1Cent=           0 NGrid=           0
         NMat0=    1 NMatS0=    820 NMatT0=    0 NMatD0=    1 NMtDS0=    0 NMtDT0=    0
 Symmetry not used in FoFCou.
 Two-electron integral symmetry not used.
 Closed shell SCF:
 Using DIIS extrapolation, IDIIS=  1040.
 NGot=   262144000 LenX=   261803239 LenY=   261801198
 Requested convergence on RMS density matrix=1.00D-08 within 128 cycles.
 Requested convergence on MAX density matrix=1.00D-06.
 Requested convergence on             energy=1.00D-06.
 No special actions if energy rises.

 Cycle   1  Pass 1  IDiag  1:
 E= -536.046188220400    
 DIIS: error= 8.46D-03 at cycle   1 NSaved=   1.
 NSaved= 1 IEnMin= 1 EnMin= -536.046188220400     IErMin= 1 ErrMin= 8.46D-03
 ErrMax= 8.46D-03  0.00D+00 EMaxC= 1.00D-01 BMatC= 4.09D-03 BMatP= 4.09D-03
 IDIUse=3 WtCom= 9.15D-01 WtEn= 8.46D-02
 Coeff-Com:  0.100D+01
 Coeff-En:   0.100D+01
 Coeff:      0.100D+01
 Gap=     1.440 Goal=   None    Shift=    0.000
 GapD=    1.440 DampG=2.000 DampE=1.000 DampFc=2.0000 IDamp=-1.
 RMSDP=2.46D-03 MaxDP=2.71D-02              OVMax= 2.62D-02

 Cycle   2  Pass 1  IDiag  1:
 E= -536.051297571361     Delta-E=       -0.005109350961 Rises=F Damp=F
 DIIS: error= 1.57D-03 at cycle   2 NSaved=   2.
 NSaved= 2 IEnMin= 2 EnMin= -536.051297571361     IErMin= 2 ErrMin= 1.57D-03
 ErrMax= 1.57D-03  0.00D+00 EMaxC= 1.00D-01 BMatC= 2.01D-04 BMatP= 4.09D-03
 IDIUse=3 WtCom= 9.84D-01 WtEn= 1.57D-02
 Coeff-Com: -0.296D-01 0.103D+01
 Coeff-En:   0.000D+00 0.100D+01
 Coeff:     -0.291D-01 0.103D+01
 Gap=     0.649 Goal=   None    Shift=    0.000
 RMSDP=6.12D-04 MaxDP=6.85D-03 DE=-5.11D-03 OVMax= 5.88D-03

 Cycle   3  Pass 1  IDiag  1:
 E= -536.051580489932     Delta-E=       -0.000282918571 Rises=F Damp=F
 DIIS: error= 4.34D-04 at cycle   3 NSaved=   3.
 NSaved= 3 IEnMin= 3 EnMin= -536.051580489932     IErMin= 3 ErrMin= 4.34D-04
 ErrMax= 4.34D-04  0.00D+00 EMaxC= 1.00D-01 BMatC= 1.41D-05 BMatP= 2.01D-04
 IDIUse=3 WtCom= 9.96D-01 WtEn= 4.34D-03
 Coeff-Com: -0.426D-01 0.268D-01 0.102D+01
 Coeff-En:   0.000D+00 0.000D+00 0.100D+01
 Coeff:     -0.424D-01 0.267D-01 0.102D+01
 Gap=     0.648 Goal=   None    Shift=    0.000
 RMSDP=2.24D-04 MaxDP=2.23D-03 DE=-2.83D-04 OVMax= 2.24D-03

 Cycle   4  Pass 1  IDiag  1:
 E= -536.051606538474     Delta-E=       -0.000026048542 Rises=F Damp=F
 DIIS: error= 1.45D-04 at cycle   4 NSaved=   4.
 NSaved= 4 IEnMin= 4 EnMin= -536.051606538474     IErMin= 4 ErrMin= 1.45D-04
 ErrMax= 1.45D-04  0.00D+00 EMaxC= 1.00D-01 BMatC= 1.15D-06 BMatP= 1.41D-05
 IDIUse=3 WtCom= 9.99D-01 WtEn= 1.45D-03
 Coeff-Com: -0.160D-02-0.301D-01 0.341D-01 0.998D+00
 Coeff-En:   0.000D+00 0.000D+00 0.000D+00 0.100D+01
 Coeff:     -0.159D-02-0.300D-01 0.341D-01 0.998D+00
 Gap=     0.648 Goal=   None    Shift=    0.000
 RMSDP=6.75D-05 MaxDP=9.27D-04 DE=-2.60D-05 OVMax= 6.59D-04

 Cycle   5  Pass 1  IDiag  1:
 E= -536.051608712751     Delta-E=       -0.000002174277 Rises=F Damp=F
 DIIS: error= 8.61D-05 at cycle   5 NSaved=   5.
 NSaved= 5 IEnMin= 5 EnMin= -536.051608712751     IErMin= 5 ErrMin= 8.61D-05
 ErrMax= 8.61D-05  0.00D+00 EMaxC= 1.00D-01 BMatC= 2.10D-07 BMatP= 1.15D-06
 IDIUse=1 WtCom= 1.00D+00 WtEn= 0.00D+00
 Coeff-Com:  0.525D-02-0.961D-02-0.133D+00 0.210D+00 0.927D+00
 Coeff:      0.525D-02-0.961D-02-0.133D+00 0.210D+00 0.927D+00
 Gap=     0.648 Goal=   None    Shift=    0.000
 RMSDP=3.09D-05 MaxDP=4.53D-04 DE=-2.17D-06 OVMax= 3.32D-04

 Cycle   6  Pass 1  IDiag  1:
 E= -536.051609093207     Delta-E=       -0.000000380456 Rises=F Damp=F
 DIIS: error= 1.55D-05 at cycle   6 NSaved=   6.
 NSaved= 6 IEnMin= 6 EnMin= -536.051609093207     IErMin= 6 ErrMin= 1.55D-05
 ErrMax= 1.55D-05  0.00D+00 EMaxC= 1.00D-01 BMatC= 9.29D-09 BMatP= 2.10D-07
 IDIUse=1 WtCom= 1.00D+00 WtEn= 0.00D+00
 Coeff-Com: -0.160D-02 0.483D-02 0.425D-01-0.133D+00-0.306D+00 0.139D+01
 Coeff:     -0.160D-02 0.483D-02 0.425D-01-0.133D+00-0.306D+00 0.139D+01
 Gap=     0.648 Goal=   None    Shift=    0.000
 RMSDP=1.19D-05 MaxDP=1.73D-04 DE=-3.80D-07 OVMax= 1.33D-04

 Cycle   7  Pass 1  IDiag  1:
 E= -536.051609127847     Delta-E=       -0.000000034640 Rises=F Damp=F
 DIIS: error= 3.42D-06 at cycle   7 NSaved=   7.
 NSaved= 7 IEnMin= 7 EnMin= -536.051609127847     IErMin= 7 ErrMin= 3.42D-06
 ErrMax= 3.42D-06  0.00D+00 EMaxC= 1.00D-01 BMatC= 3.00D-10 BMatP= 9.29D-09
 IDIUse=1 WtCom= 1.00D+00 WtEn= 0.00D+00
 Coeff-Com: -0.314D-04-0.179D-03 0.116D-03 0.941D-02 0.189D-03-0.219D+00
 Coeff-Com:  0.121D+01
 Coeff:     -0.314D-04-0.179D-03 0.116D-03 0.941D-02 0.189D-03-0.219D+00
 Coeff:      0.121D+01
 Gap=     0.648 Goal=   None    Shift=    0.000
 RMSDP=1.81D-06 MaxDP=2.35D-05 DE=-3.46D-08 OVMax= 1.88D-05

 Cycle   8  Pass 1  IDiag  1:
 E= -536.051609128826     Delta-E=       -0.000000000979 Rises=F Damp=F
 DIIS: error= 7.51D-07 at cycle   8 NSaved=   8.
 NSaved= 8 IEnMin= 8 EnMin= -536.051609128826     IErMin= 8 ErrMin= 7.51D-07
 ErrMax= 7.51D-07  0.00D+00 EMaxC= 1.00D-01 BMatC= 9.93D-12 BMatP= 3.00D-10
 IDIUse=1 WtCom= 1.00D+00 WtEn= 0.00D+00
 Coeff-Com:  0.611D-04-0.134D-03-0.160D-02 0.359D-02 0.111D-01-0.215D-01
 Coeff-Com: -0.145D+00 0.115D+01
 Coeff:      0.611D-04-0.134D-03-0.160D-02 0.359D-02 0.111D-01-0.215D-01
 Coeff:     -0.145D+00 0.115D+01
 Gap=     0.648 Goal=   None    Shift=    0.000
 RMSDP=2.06D-07 MaxDP=1.62D-06 DE=-9.79D-10 OVMax= 3.27D-06

 Cycle   9  Pass 1  IDiag  1:
 E= -536.051609128852     Delta-E=       -0.000000000026 Rises=F Damp=F
 DIIS: error= 2.53D-07 at cycle   9 NSaved=   9.
 NSaved= 9 IEnMin= 9 EnMin= -536.051609128852     IErMin= 9 ErrMin= 2.53D-07
 ErrMax= 2.53D-07  0.00D+00 EMaxC= 1.00D-01 BMatC= 9.07D-13 BMatP= 9.93D-12
 IDIUse=1 WtCom= 1.00D+00 WtEn= 0.00D+00
 Coeff-Com: -0.141D-04 0.348D-04 0.408D-03-0.131D-02-0.273D-02 0.163D-01
 Coeff-Com: -0.323D-01-0.234D+00 0.125D+01
 Coeff:     -0.141D-04 0.348D-04 0.408D-03-0.131D-02-0.273D-02 0.163D-01
 Coeff:     -0.323D-01-0.234D+00 0.125D+01
 Gap=     0.648 Goal=   None    Shift=    0.000
 RMSDP=7.60D-08 MaxDP=6.33D-07 DE=-2.59D-11 OVMax= 1.14D-06

 Cycle  10  Pass 1  IDiag  1:
 E= -536.051609128854     Delta-E=       -0.000000000003 Rises=F Damp=F
 DIIS: error= 7.39D-08 at cycle  10 NSaved=  10.
 NSaved=10 IEnMin=10 EnMin= -536.051609128854     IErMin=10 ErrMin= 7.39D-08
 ErrMax= 7.39D-08  0.00D+00 EMaxC= 1.00D-01 BMatC= 8.53D-14 BMatP= 9.07D-13
 IDIUse=1 WtCom= 1.00D+00 WtEn= 0.00D+00
 Coeff-Com: -0.395D-05 0.788D-05 0.110D-03-0.203D-03-0.799D-03 0.213D-03
 Coeff-Com:  0.183D-01-0.922D-01-0.115D+00 0.119D+01
 Coeff:     -0.395D-05 0.788D-05 0.110D-03-0.203D-03-0.799D-03 0.213D-03
 Coeff:      0.183D-01-0.922D-01-0.115D+00 0.119D+01
 Gap=     0.648 Goal=   None    Shift=    0.000
 RMSDP=2.63D-08 MaxDP=2.47D-07 DE=-2.61D-12 OVMax= 3.67D-07

 Cycle  11  Pass 1  IDiag  1:
 E= -536.051609128856     Delta-E=       -0.000000000001 Rises=F Damp=F
 DIIS: error= 1.29D-08 at cycle  11 NSaved=  11.
 NSaved=11 IEnMin=11 EnMin= -536.051609128856     IErMin=11 ErrMin= 1.29D-08
 ErrMax= 1.29D-08  0.00D+00 EMaxC= 1.00D-01 BMatC= 3.78D-15 BMatP= 8.53D-14
 IDIUse=1 WtCom= 1.00D+00 WtEn= 0.00D+00
 Coeff-Com:  0.146D-05-0.333D-05-0.428D-04 0.121D-03 0.300D-03-0.119D-02
 Coeff-Com:  0.132D-03 0.268D-01-0.657D-01-0.187D+00 0.123D+01
 Coeff:      0.146D-05-0.333D-05-0.428D-04 0.121D-03 0.300D-03-0.119D-02
 Coeff:      0.132D-03 0.268D-01-0.657D-01-0.187D+00 0.123D+01
 Gap=     0.648 Goal=   None    Shift=    0.000
 RMSDP=6.52D-09 MaxDP=7.07D-08 DE=-1.25D-12 OVMax= 7.21D-08

 SCF Done:  E(RHF) =  -536.051609129     A.U. after   11 cycles
            NFock= 11  Conv=0.65D-08     -V/T= 2.0001
 KE= 5.360050731052D+02 PE=-1.371908953116D+03 EE= 2.518970804675D+02
 Leave Link  502 at Wed Jun 15 08:26:03 2022, MaxMem=   262144000 cpu:               0.2 elap:               0.2
 (Enter /usr/local/gaussian/2016-C.01/g16/l701.exe)
 ... and contract with generalized density number  0.
 Compute integral first derivatives.
 Leave Link  701 at Wed Jun 15 08:26:03 2022, MaxMem=   262144000 cpu:               0.1 elap:               0.1
 (Enter /usr/local/gaussian/2016-C.01/g16/l702.exe)
 L702 exits ... SP integral derivatives will be done elsewhere.
 Leave Link  702 at Wed Jun 15 08:26:03 2022, MaxMem=   262144000 cpu:               0.0 elap:               0.0
 (Enter /usr/local/gaussian/2016-C.01/g16/l703.exe)
 Integral derivatives from FoFJK, PRISM(SPDF).
 Compute integral first derivatives, UseDBF=F ICtDFT=           0.
 Calling FoFJK, ICntrl=      2127 FMM=F ISym2X=0 I1Cent= 0 IOpClX= 0 NMat=1 NMatS=1 NMatT=0.
 FoFJK:  IHMeth= 1 ICntrl=    2127 DoSepK=F KAlg= 0 I1Cent=           0 FoldK=F
 IRaf=         0 NMat=       1 IRICut=       1 DoRegI=T DoRafI=F ISym2E= 0 IDoP0=0 IntGTp=1.
 FoFCou: FMM=F IPFlag=           0 FMFlag=      100000 FMFlg1=         800
         NFxFlg=           0 DoJE=F BraDBF=F KetDBF=F FulRan=T
         wScrn=  0.000000 ICntrl=      2127 IOpCl=  0 I1Cent=           0 NGrid=           0
         NMat0=    1 NMatS0=      1 NMatT0=    0 NMatD0=    1 NMtDS0=    0 NMtDT0=    0
 Symmetry not used in FoFCou.
 Leave Link  703 at Wed Jun 15 08:26:03 2022, MaxMem=   262144000 cpu:               0.4 elap:               0.4
 (Enter /usr/local/gaussian/2016-C.01/g16/l716.exe)
 Dipole        =-6.50854594D-01 4.42657035D-01 7.74926309D-01
 ***** Axes restored to original set *****
 -------------------------------------------------------------------
 Center     Atomic                   Forces (Hartrees/Bohr)
 Number     Number              X              Y              Z
 -------------------------------------------------------------------
      1        8          -0.003951801   -0.001230431   -0.001591770
      2        1           0.012268687   -0.014758307   -0.006938491
      3        1           0.000698999    0.000333327    0.003923515
      4        1           0.042460016   -0.069452479   -0.040324644
      5       17          -0.051475902    0.085107890    0.044931390
 -------------------------------------------------------------------
 Cartesian Forces:  Max     0.085107890 RMS     0.037073492
 Leave Link  716 at Wed Jun 15 08:26:03 2022, MaxMem=   262144000 cpu:               0.0 elap:               0.0
 (Enter /usr/local/gaussian/2016-C.01/g16/l103.exe)

 GradGradGradGradGradGradGradGradGradGradGradGradGradGradGradGradGradGrad
 Berny optimization.
 Using GEDIIS/GDIIS optimizer.
 FormGI is forming the generalized inverse of G from B-inverse, IUseBI=4.
 Internal  Forces:  Max     0.109089856 RMS     0.037024628
 Search for a local minimum.
 Step number   2 out of a maximum of  100
 All quantities printed in internal units (Hartrees-Bohrs-Radians)
 RMS Force = .37025D-01 SwitMx=.10000D-02 MixMth= 1
 Mixed Optimization -- RFO/linear search
 Update second derivatives using D2CorX and points    1    2
 DE= -6.96D-02 DEPred=-8.06D-02 R= 8.64D-01
 TightC=F SS=  1.41D+00  RLast= 3.00D-01 DXNew= 5.0454D-01 9.0000D-01
 Trust test= 8.64D-01 RLast= 3.00D-01 DXMaxT set to 5.05D-01
 The second derivative matrix:
                          R1        R2        R3        R4        A1
           R1           0.57677
           R2          -0.00001   0.57685
           R3           0.00002  -0.00010   0.05967
           R4           0.00206  -0.00297   0.00685   1.03280
           A1          -0.00004   0.00004  -0.00010  -0.00143   0.16001
           A2          -0.00004  -0.00015   0.00037   0.01320  -0.00021
           A3          -0.00001  -0.00004   0.00010   0.00324  -0.00005
           A4           0.00000  -0.00001   0.00003   0.00079  -0.00001
           D1          -0.00001  -0.00002   0.00006   0.00235  -0.00004
                          A2        A3        A4        D1
           A2           0.16045
           A3           0.00013   0.04234
           A4           0.00004   0.00001   0.04231
           D1           0.00006   0.00002   0.00001   0.01690
 ITU=  1  0
 Use linear search instead of GDIIS.
     Eigenvalues ---    0.01690   0.04231   0.04233   0.05962   0.15991
     Eigenvalues ---    0.16035   0.57676   0.57684   1.03309
 RFO step:  Lambda=-4.48605858D-02 EMin= 1.68980190D-02
 Quartic linear search produced a step of  1.01153.
 Maximum step size (   0.505) exceeded in Quadratic search.
    -- Step size scaled by   0.773
 Iteration  1 RMS(Cart)=  0.16074063 RMS(Int)=  0.12634483
 Iteration  2 RMS(Cart)=  0.08260836 RMS(Int)=  0.05719215
 Iteration  3 RMS(Cart)=  0.06034414 RMS(Int)=  0.00046895
 Iteration  4 RMS(Cart)=  0.00020376 RMS(Int)=  0.00000038
 Iteration  5 RMS(Cart)=  0.00000011 RMS(Int)=  0.00000000
 ITry= 1 IFail=0 DXMaxC= 4.45D-01 DCOld= 1.00D+10 DXMaxT= 5.05D-01 DXLimC= 3.00D+00 Rises=F
 Variable       Old X    -DE/DX   Delta X   Delta X   Delta X     New X
                                 (Linear)    (Quad)   (Total)
    R1        1.79121  -0.00224  -0.00408  -0.00345  -0.00752   1.78369
    R2        1.79171  -0.00060  -0.00357   0.00035  -0.00321   1.78850
    R3        2.92282   0.01854   0.08925   0.46133   0.55058   3.47340
    R4        2.18778   0.10909   0.28619  -0.02111   0.26508   2.45286
    A1        1.88292  -0.00698  -0.02803  -0.06812  -0.09615   1.78677
    A2        1.93142   0.00177   0.02103   0.02515   0.04618   1.97760
    A3        3.18440   0.00561   0.02922   0.17870   0.20793   3.39232
    A4        3.17362   0.00205   0.01015   0.06375   0.07391   3.24753
    D1        2.09535  -0.00047   0.00097  -0.00738  -0.00641   2.08895
         Item               Value     Threshold  Converged?
 Maximum Force            0.109090     0.000450     NO 
 RMS     Force            0.037025     0.000300     NO 
 Maximum Displacement     0.445427     0.001800     NO 
 RMS     Displacement     0.289630     0.001200     NO 
 Predicted change in Energy=-7.490768D-03
 Lowest energy point so far.  Saving SCF results.
 GradGradGradGradGradGradGradGradGradGradGradGradGradGradGradGradGradGrad

 Leave Link  103 at Wed Jun 15 08:26:03 2022, MaxMem=   262144000 cpu:               0.0 elap:               0.0
 (Enter /usr/local/gaussian/2016-C.01/g16/l202.exe)
                          Input orientation:                          
 ---------------------------------------------------------------------
 Center     Atomic      Atomic             Coordinates (Angstroms)
 Number     Number       Type             X           Y           Z
 ---------------------------------------------------------------------
      1          8           0        0.075402   -0.169775   -0.128165
      2          1           0        0.110004   -0.088093    0.811544
      3          1           0        0.991464   -0.165750   -0.365971
      4          1           0       -0.737521    1.415890    1.442530
      5         17           0       -1.430065    2.275043    2.125930
 ---------------------------------------------------------------------
                    Distance matrix (angstroms):
                    1          2          3          4          5
     1  O    0.000000
     2  H    0.943888   0.000000
     3  H    0.946434   1.472938   0.000000
     4  H    2.375345   1.838045   2.960009   0.000000
     5  Cl   3.650276   3.111886   4.246274   1.297997   0.000000
 Stoichiometry    ClH3O
 Framework group  C1[X(ClH3O)]
 Deg. of freedom     9
 Full point group                 C1      NOp   1
 RotChk:  IX=2 Diff= 1.72D+00
 Largest Abelian subgroup         C1      NOp   1
 Largest concise Abelian subgroup C1      NOp   1
                         Standard orientation:                         
 ---------------------------------------------------------------------
 Center     Atomic      Atomic             Coordinates (Angstroms)
 Number     Number       Type             X           Y           Z
 ---------------------------------------------------------------------
      1          8           0       -2.301462   -0.124466    0.006583
      2          1           0       -1.695670    0.351028   -0.539169
      3          1           0       -2.846796    0.566590    0.354132
      4          1           0        0.058131    0.146368   -0.028575
      5         17           0        1.346825   -0.004015    0.009467
 ---------------------------------------------------------------------
 Rotational constants (GHZ):         465.0180734           3.1772596           3.1724570
 Leave Link  202 at Wed Jun 15 08:26:03 2022, MaxMem=   262144000 cpu:               0.0 elap:               0.0
 (Enter /usr/local/gaussian/2016-C.01/g16/l301.exe)
 Standard basis: 6-31G(d) (6D, 7F)
 Ernie: Thresh=  0.10000D-02 Tol=  0.10000D-05 Strict=F.
 There are    40 symmetry adapted cartesian basis functions of A   symmetry.
 There are    40 symmetry adapted basis functions of A   symmetry.
    40 basis functions,    92 primitive gaussians,    40 cartesian basis functions
    14 alpha electrons       14 beta electrons
       nuclear repulsion energy        43.2221920951 Hartrees.
 IExCor=    0 DFT=F Ex=HF Corr=None ExCW=0 ScaHFX=  1.000000
 ScaDFX=  1.000000  1.000000  1.000000  1.000000 ScalE2=  1.000000  1.000000
 IRadAn=      5 IRanWt=     -1 IRanGd=            0 ICorTp=0 IEmpDi=  4
 NAtoms=    5 NActive=    5 NUniq=    5 SFac= 1.00D+00 NAtFMM=   60 NAOKFM=F Big=F
 Integral buffers will be    131072 words long.
 Raffenetti 1 integral format.
 Two-electron integral symmetry is turned on.
 Leave Link  301 at Wed Jun 15 08:26:03 2022, MaxMem=   262144000 cpu:               0.1 elap:               0.1
 (Enter /usr/local/gaussian/2016-C.01/g16/l302.exe)
 NPDir=0 NMtPBC=     1 NCelOv=     1 NCel=       1 NClECP=     1 NCelD=      1
         NCelK=      1 NCelE2=     1 NClLst=     1 CellRange=     0.0.
 One-electron integrals computed using PRISM.
 One-electron integral symmetry used in STVInt
 NBasis=    40 RedAO= T EigKep=  1.97D-02  NBF=    40
 NBsUse=    40 1.00D-06 EigRej= -1.00D+00 NBFU=    40
 Leave Link  302 at Wed Jun 15 08:26:03 2022, MaxMem=   262144000 cpu:               0.1 elap:               0.1
 (Enter /usr/local/gaussian/2016-C.01/g16/l303.exe)
 DipDrv:  MaxL=1.
 Leave Link  303 at Wed Jun 15 08:26:03 2022, MaxMem=   262144000 cpu:               0.0 elap:               0.0
 (Enter /usr/local/gaussian/2016-C.01/g16/l401.exe)
 Initial guess from the checkpoint file:  "/scratch/pbs.4261667.ossachilles/Gau-69071.chk"
 B after Tr=    -0.000000   -0.000000    0.000000
         Rot=    0.803046    0.595916   -0.000973   -0.000078 Ang=  73.16 deg.
 Guess basis will be translated and rotated to current coordinates.
 JPrj=2 DoOrth=T DoCkMO=T.
 Generating alternative initial guess.
 ExpMin= 1.43D-01 ExpMax= 2.52D+04 ExpMxC= 3.78D+03 IAcc=3 IRadAn=         5 AccDes= 0.00D+00
 Harris functional with IExCor=  205 and IRadAn=       5 diagonalized for initial guess.
 HarFok:  IExCor=  205 AccDes= 0.00D+00 IRadAn=         5 IDoV= 1 UseB2=F ITyADJ=14
 ICtDFT=  3500011 ScaDFX=  1.000000  1.000000  1.000000  1.000000
 FoFCou: FMM=F IPFlag=           0 FMFlag=      100000 FMFlg1=           0
         NFxFlg=           0 DoJE=T BraDBF=F KetDBF=T FulRan=T
         wScrn=  0.000000 ICntrl=       500 IOpCl=  0 I1Cent=   200000004 NGrid=           0
         NMat0=    1 NMatS0=      1 NMatT0=    0 NMatD0=    1 NMtDS0=    0 NMtDT0=    0
 Petite list used in FoFCou.
 Harris En= -535.719436816986    
 Leave Link  401 at Wed Jun 15 08:26:04 2022, MaxMem=   262144000 cpu:               0.5 elap:               0.6
 (Enter /usr/local/gaussian/2016-C.01/g16/l502.exe)
 Keep R1 ints in memory in canonical form, NReq=1171381.
 FoFCou: FMM=F IPFlag=           0 FMFlag=           0 FMFlg1=           0
         NFxFlg=           0 DoJE=F BraDBF=F KetDBF=F FulRan=T
         wScrn=  0.000000 ICntrl=       600 IOpCl=  0 I1Cent=           0 NGrid=           0
         NMat0=    1 NMatS0=    820 NMatT0=    0 NMatD0=    1 NMtDS0=    0 NMtDT0=    0
 Symmetry not used in FoFCou.
 Two-electron integral symmetry not used.
 Closed shell SCF:
 Using DIIS extrapolation, IDIIS=  1040.
 NGot=   262144000 LenX=   261803239 LenY=   261801198
 Requested convergence on RMS density matrix=1.00D-08 within 128 cycles.
 Requested convergence on MAX density matrix=1.00D-06.
 Requested convergence on             energy=1.00D-06.
 No special actions if energy rises.

 Cycle   1  Pass 1  IDiag  1:
 E= -536.055256018919    
 DIIS: error= 9.79D-03 at cycle   1 NSaved=   1.
 NSaved= 1 IEnMin= 1 EnMin= -536.055256018919     IErMin= 1 ErrMin= 9.79D-03
 ErrMax= 9.79D-03  0.00D+00 EMaxC= 1.00D-01 BMatC= 6.57D-03 BMatP= 6.57D-03
 IDIUse=3 WtCom= 9.02D-01 WtEn= 9.79D-02
 Coeff-Com:  0.100D+01
 Coeff-En:   0.100D+01
 Coeff:      0.100D+01
 Gap=     1.541 Goal=   None    Shift=    0.000
 GapD=    1.541 DampG=2.000 DampE=1.000 DampFc=2.0000 IDamp=-1.
 RMSDP=3.27D-03 MaxDP=3.08D-02              OVMax= 3.29D-02

 Cycle   2  Pass 1  IDiag  1:
 E= -536.065975555115     Delta-E=       -0.010719536196 Rises=F Damp=F
 DIIS: error= 3.57D-03 at cycle   2 NSaved=   2.
 NSaved= 2 IEnMin= 2 EnMin= -536.065975555115     IErMin= 2 ErrMin= 3.57D-03
 ErrMax= 3.57D-03  0.00D+00 EMaxC= 1.00D-01 BMatC= 4.70D-04 BMatP= 6.57D-03
 IDIUse=3 WtCom= 9.64D-01 WtEn= 3.57D-02
 Coeff-Com: -0.178D+00 0.118D+01
 Coeff-En:   0.000D+00 0.100D+01
 Coeff:     -0.171D+00 0.117D+01
 Gap=     0.617 Goal=   None    Shift=    0.000
 RMSDP=1.33D-03 MaxDP=1.64D-02 DE=-1.07D-02 OVMax= 1.78D-02

 Cycle   3  Pass 1  IDiag  1:
 E= -536.067181244769     Delta-E=       -0.001205689654 Rises=F Damp=F
 DIIS: error= 1.30D-03 at cycle   3 NSaved=   3.
 NSaved= 3 IEnMin= 3 EnMin= -536.067181244769     IErMin= 3 ErrMin= 1.30D-03
 ErrMax= 1.30D-03  0.00D+00 EMaxC= 1.00D-01 BMatC= 4.66D-05 BMatP= 4.70D-04
 IDIUse=3 WtCom= 9.87D-01 WtEn= 1.30D-02
 Coeff-Com: -0.455D-01-0.293D-01 0.107D+01
 Coeff-En:   0.000D+00 0.000D+00 0.100D+01
 Coeff:     -0.449D-01-0.289D-01 0.107D+01
 Gap=     0.618 Goal=   None    Shift=    0.000
 RMSDP=5.02D-04 MaxDP=7.36D-03 DE=-1.21D-03 OVMax= 7.28D-03

 Cycle   4  Pass 1  IDiag  1:
 E= -536.067329876627     Delta-E=       -0.000148631858 Rises=F Damp=F
 DIIS: error= 4.92D-04 at cycle   4 NSaved=   4.
 NSaved= 4 IEnMin= 4 EnMin= -536.067329876627     IErMin= 4 ErrMin= 4.92D-04
 ErrMax= 4.92D-04  0.00D+00 EMaxC= 1.00D-01 BMatC= 5.34D-06 BMatP= 4.66D-05
 IDIUse=3 WtCom= 9.95D-01 WtEn= 4.92D-03
 Coeff-Com:  0.261D-01-0.850D-01-0.375D+00 0.143D+01
 Coeff-En:   0.000D+00 0.000D+00 0.000D+00 0.100D+01
 Coeff:      0.260D-01-0.845D-01-0.373D+00 0.143D+01
 Gap=     0.618 Goal=   None    Shift=    0.000
 RMSDP=2.71D-04 MaxDP=4.22D-03 DE=-1.49D-04 OVMax= 3.96D-03

 Cycle   5  Pass 1  IDiag  1:
 E= -536.067353956056     Delta-E=       -0.000024079430 Rises=F Damp=F
 DIIS: error= 5.66D-05 at cycle   5 NSaved=   5.
 NSaved= 5 IEnMin= 5 EnMin= -536.067353956056     IErMin= 5 ErrMin= 5.66D-05
 ErrMax= 5.66D-05  0.00D+00 EMaxC= 1.00D-01 BMatC= 2.11D-07 BMatP= 5.34D-06
 IDIUse=1 WtCom= 1.00D+00 WtEn= 0.00D+00
 Coeff-Com: -0.229D-03 0.770D-02-0.946D-02-0.128D+00 0.113D+01
 Coeff:     -0.229D-03 0.770D-02-0.946D-02-0.128D+00 0.113D+01
 Gap=     0.618 Goal=   None    Shift=    0.000
 RMSDP=3.73D-05 MaxDP=5.19D-04 DE=-2.41D-05 OVMax= 5.74D-04

 Cycle   6  Pass 1  IDiag  1:
 E= -536.067354615435     Delta-E=       -0.000000659379 Rises=F Damp=F
 DIIS: error= 2.91D-05 at cycle   6 NSaved=   6.
 NSaved= 6 IEnMin= 6 EnMin= -536.067354615435     IErMin= 6 ErrMin= 2.91D-05
 ErrMax= 2.91D-05  0.00D+00 EMaxC= 1.00D-01 BMatC= 3.51D-08 BMatP= 2.11D-07
 IDIUse=1 WtCom= 1.00D+00 WtEn= 0.00D+00
 Coeff-Com: -0.295D-02 0.112D-01 0.390D-01-0.191D+00 0.287D+00 0.857D+00
 Coeff:     -0.295D-02 0.112D-01 0.390D-01-0.191D+00 0.287D+00 0.857D+00
 Gap=     0.618 Goal=   None    Shift=    0.000
 RMSDP=8.77D-06 MaxDP=1.06D-04 DE=-6.59D-07 OVMax= 1.32D-04

 Cycle   7  Pass 1  IDiag  1:
 E= -536.067354668585     Delta-E=       -0.000000053150 Rises=F Damp=F
 DIIS: error= 3.41D-06 at cycle   7 NSaved=   7.
 NSaved= 7 IEnMin= 7 EnMin= -536.067354668585     IErMin= 7 ErrMin= 3.41D-06
 ErrMax= 3.41D-06  0.00D+00 EMaxC= 1.00D-01 BMatC= 8.60D-10 BMatP= 3.51D-08
 IDIUse=1 WtCom= 1.00D+00 WtEn= 0.00D+00
 Coeff-Com:  0.732D-04-0.684D-03-0.114D-02 0.130D-01-0.754D-01-0.186D-01
 Coeff-Com:  0.108D+01
 Coeff:      0.732D-04-0.684D-03-0.114D-02 0.130D-01-0.754D-01-0.186D-01
 Coeff:      0.108D+01
 Gap=     0.618 Goal=   None    Shift=    0.000
 RMSDP=1.66D-06 MaxDP=2.15D-05 DE=-5.32D-08 OVMax= 2.44D-05

 Cycle   8  Pass 1  IDiag  1:
 E= -536.067354670431     Delta-E=       -0.000000001846 Rises=F Damp=F
 DIIS: error= 9.06D-07 at cycle   8 NSaved=   8.
 NSaved= 8 IEnMin= 8 EnMin= -536.067354670431     IErMin= 8 ErrMin= 9.06D-07
 ErrMax= 9.06D-07  0.00D+00 EMaxC= 1.00D-01 BMatC= 3.03D-11 BMatP= 8.60D-10
 IDIUse=1 WtCom= 1.00D+00 WtEn= 0.00D+00
 Coeff-Com:  0.103D-03-0.321D-03-0.136D-02 0.587D-02-0.148D-02-0.294D-01
 Coeff-Com: -0.132D+00 0.116D+01
 Coeff:      0.103D-03-0.321D-03-0.136D-02 0.587D-02-0.148D-02-0.294D-01
 Coeff:     -0.132D+00 0.116D+01
 Gap=     0.618 Goal=   None    Shift=    0.000
 RMSDP=3.11D-07 MaxDP=2.71D-06 DE=-1.85D-09 OVMax= 3.87D-06

 Cycle   9  Pass 1  IDiag  1:
 E= -536.067354670509     Delta-E=       -0.000000000078 Rises=F Damp=F
 DIIS: error= 2.74D-07 at cycle   9 NSaved=   9.
 NSaved= 9 IEnMin= 9 EnMin= -536.067354670509     IErMin= 9 ErrMin= 2.74D-07
 ErrMax= 2.74D-07  0.00D+00 EMaxC= 1.00D-01 BMatC= 2.13D-12 BMatP= 3.03D-11
 IDIUse=1 WtCom= 1.00D+00 WtEn= 0.00D+00
 Coeff-Com: -0.278D-04 0.990D-04 0.431D-03-0.215D-02 0.370D-02 0.827D-02
 Coeff-Com: -0.152D-01-0.292D+00 0.130D+01
 Coeff:     -0.278D-04 0.990D-04 0.431D-03-0.215D-02 0.370D-02 0.827D-02
 Coeff:     -0.152D-01-0.292D+00 0.130D+01
 Gap=     0.618 Goal=   None    Shift=    0.000
 RMSDP=9.25D-08 MaxDP=7.35D-07 DE=-7.78D-11 OVMax= 1.29D-06

 Cycle  10  Pass 1  IDiag  1:
 E= -536.067354670516     Delta-E=       -0.000000000007 Rises=F Damp=F
 DIIS: error= 7.67D-08 at cycle  10 NSaved=  10.
 NSaved=10 IEnMin=10 EnMin= -536.067354670516     IErMin=10 ErrMin= 7.67D-08
 ErrMax= 7.67D-08  0.00D+00 EMaxC= 1.00D-01 BMatC= 1.22D-13 BMatP= 2.13D-12
 IDIUse=1 WtCom= 1.00D+00 WtEn= 0.00D+00
 Coeff-Com: -0.441D-05 0.122D-04 0.576D-04-0.202D-03-0.247D-03 0.133D-02
 Coeff-Com:  0.104D-01-0.556D-01-0.797D-01 0.112D+01
 Coeff:     -0.441D-05 0.122D-04 0.576D-04-0.202D-03-0.247D-03 0.133D-02
 Coeff:      0.104D-01-0.556D-01-0.797D-01 0.112D+01
 Gap=     0.618 Goal=   None    Shift=    0.000
 RMSDP=2.36D-08 MaxDP=1.76D-07 DE=-6.82D-12 OVMax= 3.39D-07

 Cycle  11  Pass 1  IDiag  1:
 E= -536.067354670517     Delta-E=       -0.000000000001 Rises=F Damp=F
 DIIS: error= 2.58D-08 at cycle  11 NSaved=  11.
 NSaved=11 IEnMin=11 EnMin= -536.067354670517     IErMin=11 ErrMin= 2.58D-08
 ErrMax= 2.58D-08  0.00D+00 EMaxC= 1.00D-01 BMatC= 8.70D-15 BMatP= 1.22D-13
 IDIUse=1 WtCom= 1.00D+00 WtEn= 0.00D+00
 Coeff-Com:  0.220D-05-0.707D-05-0.355D-04 0.162D-03-0.235D-03-0.635D-03
 Coeff-Com:  0.371D-03 0.223D-01-0.792D-01-0.922D-01 0.115D+01
 Coeff:      0.220D-05-0.707D-05-0.355D-04 0.162D-03-0.235D-03-0.635D-03
 Coeff:      0.371D-03 0.223D-01-0.792D-01-0.922D-01 0.115D+01
 Gap=     0.618 Goal=   None    Shift=    0.000
 RMSDP=6.94D-09 MaxDP=5.78D-08 DE=-9.09D-13 OVMax= 1.09D-07

 SCF Done:  E(RHF) =  -536.067354671     A.U. after   11 cycles
            NFock= 11  Conv=0.69D-08     -V/T= 2.0006
 KE= 5.357348297417D+02 PE=-1.362246167446D+03 EE= 2.472217909386D+02
 Leave Link  502 at Wed Jun 15 08:26:04 2022, MaxMem=   262144000 cpu:               0.2 elap:               0.2
 (Enter /usr/local/gaussian/2016-C.01/g16/l701.exe)
 ... and contract with generalized density number  0.
 Compute integral first derivatives.
 Leave Link  701 at Wed Jun 15 08:26:04 2022, MaxMem=   262144000 cpu:               0.1 elap:               0.1
 (Enter /usr/local/gaussian/2016-C.01/g16/l702.exe)
 L702 exits ... SP integral derivatives will be done elsewhere.
 Leave Link  702 at Wed Jun 15 08:26:04 2022, MaxMem=   262144000 cpu:               0.0 elap:               0.0
 (Enter /usr/local/gaussian/2016-C.01/g16/l703.exe)
 Integral derivatives from FoFJK, PRISM(SPDF).
 Compute integral first derivatives, UseDBF=F ICtDFT=           0.
 Calling FoFJK, ICntrl=      2127 FMM=F ISym2X=0 I1Cent= 0 IOpClX= 0 NMat=1 NMatS=1 NMatT=0.
 FoFJK:  IHMeth= 1 ICntrl=    2127 DoSepK=F KAlg= 0 I1Cent=           0 FoldK=F
 IRaf=         0 NMat=       1 IRICut=       1 DoRegI=T DoRafI=F ISym2E= 0 IDoP0=0 IntGTp=1.
 FoFCou: FMM=F IPFlag=           0 FMFlag=      100000 FMFlg1=         800
         NFxFlg=           0 DoJE=F BraDBF=F KetDBF=F FulRan=T
         wScrn=  0.000000 ICntrl=      2127 IOpCl=  0 I1Cent=           0 NGrid=           0
         NMat0=    1 NMatS0=      1 NMatT0=    0 NMatD0=    1 NMtDS0=    0 NMtDT0=    0
 Symmetry not used in FoFCou.
 Leave Link  703 at Wed Jun 15 08:26:05 2022, MaxMem=   262144000 cpu:               0.3 elap:               0.3
 (Enter /usr/local/gaussian/2016-C.01/g16/l716.exe)
 Dipole        =-6.42125099D-01 9.19684737D-01-1.39227672D-01
 ***** Axes restored to original set *****
 -------------------------------------------------------------------
 Center     Atomic                   Forces (Hartrees/Bohr)
 Number     Number              X              Y              Z
 -------------------------------------------------------------------
      1        8           0.003133598    0.003186167    0.003168636
      2        1          -0.001896226   -0.008187803    0.004643406
      3        1           0.001939139   -0.000240277   -0.007157573
      4        1          -0.014857155    0.019127208    0.008896204
      5       17           0.011680644   -0.013885295   -0.009550673
 -------------------------------------------------------------------
 Cartesian Forces:  Max     0.019127208 RMS     0.009177650
 Leave Link  716 at Wed Jun 15 08:26:05 2022, MaxMem=   262144000 cpu:               0.0 elap:               0.0
 (Enter /usr/local/gaussian/2016-C.01/g16/l103.exe)

 GradGradGradGradGradGradGradGradGradGradGradGradGradGradGradGradGradGrad
 Berny optimization.
 Using GEDIIS/GDIIS optimizer.
 FormGI is forming the generalized inverse of G from B-inverse, IUseBI=4.
 Internal  Forces:  Max     0.020451418 RMS     0.008590462
 Search for a local minimum.
 Step number   3 out of a maximum of  100
 All quantities printed in internal units (Hartrees-Bohrs-Radians)
 RMS Force = .85905D-02 SwitMx=.10000D-02 MixMth= 1
 Mixed Optimization -- RFO/linear search
 Update second derivatives using D2CorX and points    2    3
 DE= -1.57D-02 DEPred=-7.49D-03 R= 2.10D+00
 TightC=F SS=  1.41D+00  RLast= 6.58D-01 DXNew= 8.4853D-01 1.9754D+00
 Trust test= 2.10D+00 RLast= 6.58D-01 DXMaxT set to 8.49D-01
 The second derivative matrix:
                          R1        R2        R3        R4        A1
           R1           0.57743
           R2           0.00044   0.57715
           R3          -0.00038  -0.00033   0.05110
           R4          -0.00450  -0.00704  -0.05483   0.60902
           A1           0.00189   0.00134   0.00001  -0.01108   0.16550
           A2          -0.00071  -0.00059  -0.00121   0.00510  -0.00189
           A3          -0.00016  -0.00013  -0.00222  -0.01315  -0.00015
           A4          -0.00007  -0.00006  -0.00073  -0.00440  -0.00011
           D1          -0.00001  -0.00002  -0.00011   0.00108   0.00000
                          A2        A3        A4        D1
           A2           0.16069
           A3          -0.00026   0.04172
           A4          -0.00007  -0.00019   0.04225
           D1           0.00001  -0.00003  -0.00001   0.01690
 ITU=  1  1  0
 Use linear search instead of GDIIS.
     Eigenvalues ---    0.01690   0.03926   0.04231   0.04782   0.16004
     Eigenvalues ---    0.16582   0.57579   0.57704   0.61678
 RFO step:  Lambda=-1.31932248D-03 EMin= 1.68986455D-02
 Quartic linear search produced a step of -0.11994.
 Iteration  1 RMS(Cart)=  0.03600849 RMS(Int)=  0.00188935
 Iteration  2 RMS(Cart)=  0.00216269 RMS(Int)=  0.00000431
 Iteration  3 RMS(Cart)=  0.00000344 RMS(Int)=  0.00000000
 Iteration  4 RMS(Cart)=  0.00000000 RMS(Int)=  0.00000000
 ITry= 1 IFail=0 DXMaxC= 5.53D-02 DCOld= 1.00D+10 DXMaxT= 8.49D-01 DXLimC= 3.00D+00 Rises=F
 Variable       Old X    -DE/DX   Delta X   Delta X   Delta X     New X
                                 (Linear)    (Quad)   (Total)
    R1        1.78369   0.00376   0.00090   0.00514   0.00604   1.78973
    R2        1.78850   0.00349   0.00039   0.00510   0.00549   1.79399
    R3        3.47340   0.00551  -0.06603   0.09104   0.02500   3.49840
    R4        2.45286  -0.02045  -0.03179   0.00058  -0.03121   2.42165
    A1        1.78677   0.01200   0.01153   0.06038   0.07191   1.85868
    A2        1.97760  -0.00647  -0.00554  -0.03359  -0.03913   1.93848
    A3        3.39232   0.00166  -0.02494   0.03362   0.00869   3.40101
    A4        3.24753   0.00052  -0.00886   0.01066   0.00179   3.24932
    D1        2.08895  -0.00058   0.00077  -0.02878  -0.02801   2.06094
         Item               Value     Threshold  Converged?
 Maximum Force            0.020451     0.000450     NO 
 RMS     Force            0.008590     0.000300     NO 
 Maximum Displacement     0.055303     0.001800     NO 
 RMS     Displacement     0.036280     0.001200     NO 
 Predicted change in Energy=-9.862112D-04
 Lowest energy point so far.  Saving SCF results.
 GradGradGradGradGradGradGradGradGradGradGradGradGradGradGradGradGradGrad

 Leave Link  103 at Wed Jun 15 08:26:05 2022, MaxMem=   262144000 cpu:               0.0 elap:               0.0
 (Enter /usr/local/gaussian/2016-C.01/g16/l202.exe)
                          Input orientation:                          
 ---------------------------------------------------------------------
 Center     Atomic      Atomic             Coordinates (Angstroms)
 Number     Number       Type             X           Y           Z
 ---------------------------------------------------------------------
      1          8           0        0.085614   -0.157122   -0.112426
      2          1           0        0.094615   -0.117358    0.833780
      3          1           0        0.993082   -0.149811   -0.391157
      4          1           0       -0.743914    1.416426    1.443362
      5         17           0       -1.420113    2.275180    2.112309
 ---------------------------------------------------------------------
                    Distance matrix (angstroms):
                    1          2          3          4          5
     1  O    0.000000
     2  H    0.947084   0.000000
     3  H    0.949338   1.519462   0.000000
     4  H    2.363186   1.851274   2.972492   0.000000
     5  Cl   3.623914   3.106972   4.239272   1.281480   0.000000
 Stoichiometry    ClH3O
 Framework group  C1[X(ClH3O)]
 Deg. of freedom     9
 Full point group                 C1      NOp   1
 RotChk:  IX=2 Diff= 1.02D-01
 Largest Abelian subgroup         C1      NOp   1
 Largest concise Abelian subgroup C1      NOp   1
                         Standard orientation:                         
 ---------------------------------------------------------------------
 Center     Atomic      Atomic             Coordinates (Angstroms)
 Number     Number       Type             X           Y           Z
 ---------------------------------------------------------------------
      1          8           0       -2.283896   -0.118497    0.015571
      2          1           0       -1.693629    0.288999   -0.602896
      3          1           0       -2.849039    0.570489    0.342915
      4          1           0        0.065104    0.132493   -0.046498
      5         17           0        1.338161   -0.002589    0.010701
 ---------------------------------------------------------------------
 Rotational constants (GHZ):         459.8673332           3.2182274           3.2158896
 Leave Link  202 at Wed Jun 15 08:26:05 2022, MaxMem=   262144000 cpu:               0.0 elap:               0.0
 (Enter /usr/local/gaussian/2016-C.01/g16/l301.exe)
 Standard basis: 6-31G(d) (6D, 7F)
 Ernie: Thresh=  0.10000D-02 Tol=  0.10000D-05 Strict=F.
 There are    40 symmetry adapted cartesian basis functions of A   symmetry.
 There are    40 symmetry adapted basis functions of A   symmetry.
    40 basis functions,    92 primitive gaussians,    40 cartesian basis functions
    14 alpha electrons       14 beta electrons
       nuclear repulsion energy        43.4295524059 Hartrees.
 IExCor=    0 DFT=F Ex=HF Corr=None ExCW=0 ScaHFX=  1.000000
 ScaDFX=  1.000000  1.000000  1.000000  1.000000 ScalE2=  1.000000  1.000000
 IRadAn=      5 IRanWt=     -1 IRanGd=            0 ICorTp=0 IEmpDi=  4
 NAtoms=    5 NActive=    5 NUniq=    5 SFac= 1.00D+00 NAtFMM=   60 NAOKFM=F Big=F
 Integral buffers will be    131072 words long.
 Raffenetti 1 integral format.
 Two-electron integral symmetry is turned on.
 Leave Link  301 at Wed Jun 15 08:26:05 2022, MaxMem=   262144000 cpu:               0.1 elap:               0.1
 (Enter /usr/local/gaussian/2016-C.01/g16/l302.exe)
 NPDir=0 NMtPBC=     1 NCelOv=     1 NCel=       1 NClECP=     1 NCelD=      1
         NCelK=      1 NCelE2=     1 NClLst=     1 CellRange=     0.0.
 One-electron integrals computed using PRISM.
 One-electron integral symmetry used in STVInt
 NBasis=    40 RedAO= T EigKep=  1.97D-02  NBF=    40
 NBsUse=    40 1.00D-06 EigRej= -1.00D+00 NBFU=    40
 Leave Link  302 at Wed Jun 15 08:26:05 2022, MaxMem=   262144000 cpu:               0.1 elap:               0.1
 (Enter /usr/local/gaussian/2016-C.01/g16/l303.exe)
 DipDrv:  MaxL=1.
 Leave Link  303 at Wed Jun 15 08:26:05 2022, MaxMem=   262144000 cpu:               0.0 elap:               0.0
 (Enter /usr/local/gaussian/2016-C.01/g16/l401.exe)
 Initial guess from the checkpoint file:  "/scratch/pbs.4261667.ossachilles/Gau-69071.chk"
 B after Tr=    -0.000000    0.000000   -0.000000
         Rot=    0.999296    0.037520    0.000025   -0.000193 Ang=   4.30 deg.
 Guess basis will be translated and rotated to current coordinates.
 JPrj=2 DoOrth=T DoCkMO=T.
 Generating alternative initial guess.
 ExpMin= 1.43D-01 ExpMax= 2.52D+04 ExpMxC= 3.78D+03 IAcc=3 IRadAn=         5 AccDes= 0.00D+00
 Harris functional with IExCor=  205 and IRadAn=       5 diagonalized for initial guess.
 HarFok:  IExCor=  205 AccDes= 0.00D+00 IRadAn=         5 IDoV= 1 UseB2=F ITyADJ=14
 ICtDFT=  3500011 ScaDFX=  1.000000  1.000000  1.000000  1.000000
 FoFCou: FMM=F IPFlag=           0 FMFlag=      100000 FMFlg1=           0
         NFxFlg=           0 DoJE=T BraDBF=F KetDBF=T FulRan=T
         wScrn=  0.000000 ICntrl=       500 IOpCl=  0 I1Cent=   200000004 NGrid=           0
         NMat0=    1 NMatS0=      1 NMatT0=    0 NMatD0=    1 NMtDS0=    0 NMtDT0=    0
 Petite list used in FoFCou.
 Harris En= -535.719926895536    
 Leave Link  401 at Wed Jun 15 08:26:06 2022, MaxMem=   262144000 cpu:               0.5 elap:               0.5
 (Enter /usr/local/gaussian/2016-C.01/g16/l502.exe)
 Keep R1 ints in memory in canonical form, NReq=1171395.
 FoFCou: FMM=F IPFlag=           0 FMFlag=           0 FMFlg1=           0
         NFxFlg=           0 DoJE=F BraDBF=F KetDBF=F FulRan=T
         wScrn=  0.000000 ICntrl=       600 IOpCl=  0 I1Cent=           0 NGrid=           0
         NMat0=    1 NMatS0=    820 NMatT0=    0 NMatD0=    1 NMtDS0=    0 NMtDT0=    0
 Symmetry not used in FoFCou.
 Two-electron integral symmetry not used.
 Closed shell SCF:
 Using DIIS extrapolation, IDIIS=  1040.
 NGot=   262144000 LenX=   261803239 LenY=   261801198
 Requested convergence on RMS density matrix=1.00D-08 within 128 cycles.
 Requested convergence on MAX density matrix=1.00D-06.
 Requested convergence on             energy=1.00D-06.
 No special actions if energy rises.

 Cycle   1  Pass 1  IDiag  1:
 E= -536.068057064563    
 DIIS: error= 2.66D-03 at cycle   1 NSaved=   1.
 NSaved= 1 IEnMin= 1 EnMin= -536.068057064563     IErMin= 1 ErrMin= 2.66D-03
 ErrMax= 2.66D-03  0.00D+00 EMaxC= 1.00D-01 BMatC= 4.11D-04 BMatP= 4.11D-04
 IDIUse=3 WtCom= 9.73D-01 WtEn= 2.66D-02
 Coeff-Com:  0.100D+01
 Coeff-En:   0.100D+01
 Coeff:      0.100D+01
 Gap=     1.558 Goal=   None    Shift=    0.000
 GapD=    1.558 DampG=2.000 DampE=1.000 DampFc=2.0000 IDamp=-1.
 RMSDP=5.33D-04 MaxDP=4.51D-03              OVMax= 5.57D-03

 Cycle   2  Pass 1  IDiag  1:
 E= -536.068556837391     Delta-E=       -0.000499772828 Rises=F Damp=F
 DIIS: error= 1.05D-03 at cycle   2 NSaved=   2.
 NSaved= 2 IEnMin= 2 EnMin= -536.068556837391     IErMin= 2 ErrMin= 1.05D-03
 ErrMax= 1.05D-03  0.00D+00 EMaxC= 1.00D-01 BMatC= 2.35D-05 BMatP= 4.11D-04
 IDIUse=3 WtCom= 9.89D-01 WtEn= 1.05D-02
 Coeff-Com: -0.176D+00 0.118D+01
 Coeff-En:   0.000D+00 0.100D+01
 Coeff:     -0.174D+00 0.117D+01
 Gap=     0.623 Goal=   None    Shift=    0.000
 RMSDP=1.97D-04 MaxDP=1.47D-03 DE=-5.00D-04 OVMax= 2.96D-03

 Cycle   3  Pass 1  IDiag  1:
 E= -536.068603365636     Delta-E=       -0.000046528246 Rises=F Damp=F
 DIIS: error= 3.08D-04 at cycle   3 NSaved=   3.
 NSaved= 3 IEnMin= 3 EnMin= -536.068603365636     IErMin= 3 ErrMin= 3.08D-04
 ErrMax= 3.08D-04  0.00D+00 EMaxC= 1.00D-01 BMatC= 1.74D-06 BMatP= 2.35D-05
 IDIUse=3 WtCom= 9.97D-01 WtEn= 3.08D-03
 Coeff-Com: -0.210D-01-0.116D+00 0.114D+01
 Coeff-En:   0.000D+00 0.000D+00 0.100D+01
 Coeff:     -0.210D-01-0.115D+00 0.114D+01
 Gap=     0.623 Goal=   None    Shift=    0.000
 RMSDP=7.15D-05 MaxDP=6.70D-04 DE=-4.65D-05 OVMax= 1.19D-03

 Cycle   4  Pass 1  IDiag  1:
 E= -536.068607932844     Delta-E=       -0.000004567207 Rises=F Damp=F
 DIIS: error= 8.82D-05 at cycle   4 NSaved=   4.
 NSaved= 4 IEnMin= 4 EnMin= -536.068607932844     IErMin= 4 ErrMin= 8.82D-05
 ErrMax= 8.82D-05  0.00D+00 EMaxC= 1.00D-01 BMatC= 1.82D-07 BMatP= 1.74D-06
 IDIUse=1 WtCom= 1.00D+00 WtEn= 0.00D+00
 Coeff-Com:  0.151D-01-0.477D-01-0.272D+00 0.130D+01
 Coeff:      0.151D-01-0.477D-01-0.272D+00 0.130D+01
 Gap=     0.623 Goal=   None    Shift=    0.000
 RMSDP=3.31D-05 MaxDP=3.51D-04 DE=-4.57D-06 OVMax= 5.65D-04

 Cycle   5  Pass 1  IDiag  1:
 E= -536.068608561124     Delta-E=       -0.000000628280 Rises=F Damp=F
 DIIS: error= 2.37D-05 at cycle   5 NSaved=   5.
 NSaved= 5 IEnMin= 5 EnMin= -536.068608561124     IErMin= 5 ErrMin= 2.37D-05
 ErrMax= 2.37D-05  0.00D+00 EMaxC= 1.00D-01 BMatC= 1.74D-08 BMatP= 1.82D-07
 IDIUse=1 WtCom= 1.00D+00 WtEn= 0.00D+00
 Coeff-Com:  0.273D-02 0.609D-02-0.114D+00 0.781D-01 0.103D+01
 Coeff:      0.273D-02 0.609D-02-0.114D+00 0.781D-01 0.103D+01
 Gap=     0.623 Goal=   None    Shift=    0.000
 RMSDP=8.70D-06 MaxDP=1.03D-04 DE=-6.28D-07 OVMax= 1.49D-04

 Cycle   6  Pass 1  IDiag  1:
 E= -536.068608605522     Delta-E=       -0.000000044398 Rises=F Damp=F
 DIIS: error= 7.07D-06 at cycle   6 NSaved=   6.
 NSaved= 6 IEnMin= 6 EnMin= -536.068608605522     IErMin= 6 ErrMin= 7.07D-06
 ErrMax= 7.07D-06  0.00D+00 EMaxC= 1.00D-01 BMatC= 1.94D-09 BMatP= 1.74D-08
 IDIUse=1 WtCom= 1.00D+00 WtEn= 0.00D+00
 Coeff-Com: -0.136D-02 0.601D-02 0.172D-01-0.140D+00 0.142D+00 0.976D+00
 Coeff:     -0.136D-02 0.601D-02 0.172D-01-0.140D+00 0.142D+00 0.976D+00
 Gap=     0.623 Goal=   None    Shift=    0.000
 RMSDP=2.19D-06 MaxDP=2.33D-05 DE=-4.44D-08 OVMax= 4.09D-05

 Cycle   7  Pass 1  IDiag  1:
 E= -536.068608609000     Delta-E=       -0.000000003478 Rises=F Damp=F
 DIIS: error= 1.49D-06 at cycle   7 NSaved=   7.
 NSaved= 7 IEnMin= 7 EnMin= -536.068608609000     IErMin= 7 ErrMin= 1.49D-06
 ErrMax= 1.49D-06  0.00D+00 EMaxC= 1.00D-01 BMatC= 9.52D-11 BMatP= 1.94D-09
 IDIUse=1 WtCom= 1.00D+00 WtEn= 0.00D+00
 Coeff-Com: -0.433D-03 0.307D-03 0.113D-01-0.248D-01-0.600D-01 0.114D+00
 Coeff-Com:  0.959D+00
 Coeff:     -0.433D-03 0.307D-03 0.113D-01-0.248D-01-0.600D-01 0.114D+00
 Coeff:      0.959D+00
[...]
                                         X                                                                                           
                                         X                                                                                           
                                         X                                                                                           
                                         X                                                                                           
                                         X                                                                                           
                                         X                                                                                           
                                         X                                                                                           
                                         X                                                                                           
                                         X                                                                                           
                                         X                                                                                           
 
 ***** Axes restored to original set *****
 -------------------------------------------------------------------
 Center     Atomic                   Forces (Hartrees/Bohr)
 Number     Number              X              Y              Z
 -------------------------------------------------------------------
      1        8           0.000010100   -0.000020742   -0.000028812
      2        1          -0.000003280    0.000012932    0.000014790
      3        1           0.000000633    0.000010766    0.000011300
      4        1          -0.000038464    0.000020091    0.000019280
      5       17           0.000031012   -0.000023047   -0.000016558
 -------------------------------------------------------------------
 Cartesian Forces:  Max     0.000038464 RMS     0.000020042
 Force constants in Cartesian coordinates: 
                1             2             3             4             5 
      1  0.825787D-01
      2  0.153869D+00  0.632914D+00
      3 -0.170143D+00 -0.922099D-01  0.629920D+00
      4 -0.389291D-01 -0.128523D+00  0.357586D-01  0.407244D-01
      5 -0.142895D+00 -0.559682D+00  0.840906D-01  0.141926D+00  0.564073D+00
      6  0.211267D-01  0.174379D-01 -0.653930D-01 -0.336864D-01 -0.753162D-01
      7 -0.380327D-01 -0.294992D-01  0.130846D+00 -0.294106D-02  0.102008D-02
      8 -0.139990D-01 -0.658291D-01  0.972806D-02 -0.139604D-01 -0.308690D-02
      9  0.146591D+00  0.758679D-01 -0.560144D+00 -0.123841D-02 -0.850982D-02
     10 -0.422574D-02 -0.113223D-02  0.235807D-03  0.220023D-02 -0.127596D-03
     11 -0.199933D-02 -0.288304D-02  0.333847D-02  0.211189D-03 -0.158004D-02
     12 -0.623120D-03  0.373790D-02 -0.381764D-02 -0.142632D-02 -0.310751D-03
     13 -0.139116D-02  0.528509D-02  0.330197D-02 -0.105447D-02  0.759056D-04
     14  0.502395D-02 -0.452008D-02 -0.494724D-02  0.345656D-03  0.275658D-03
     15  0.304815D-02 -0.483381D-02 -0.565796D-03  0.592604D-03  0.462263D-04
                6             7             8             9            10 
      6  0.682325D-01
      7  0.138537D-01  0.410822D-01
      8  0.577777D-01  0.285971D-01  0.669986D-01
      9 -0.405008D-02 -0.145801D+00 -0.666762D-01  0.564951D+00
     10 -0.215802D-02  0.264093D-03 -0.143639D-02  0.746187D-03  0.123976D+00
     11  0.606589D-03 -0.420235D-03  0.340934D-02 -0.104167D-02 -0.135564D+00
     12  0.208484D-02  0.135021D-02 -0.739410D-03 -0.970980D-03 -0.818503D-01
     13  0.864070D-03 -0.372526D-03  0.798728D-03 -0.298301D-03 -0.122215D+00
     14 -0.505873D-03  0.302274D-03 -0.149194D-02  0.359786D-03  0.138260D+00
     15 -0.874249D-03 -0.249804D-03 -0.900852D-04  0.213207D-03  0.830263D-01
               11            12            13            14            15 
     11  0.166118D+00
     12  0.935198D-01  0.644710D-01
     13  0.137772D+00  0.825495D-01  0.125033D+00
     14 -0.165064D+00 -0.962075D-01 -0.143932D+00  0.170800D+00
     15 -0.964232D-01 -0.617672D-01 -0.864172D-01  0.101301D+00  0.629941D-01
 FormGI is forming the generalized inverse of G from B-inverse, IUseBI=4.
 Force constants in internal coordinates: 
                1             2             3             4             5 
      1  0.614664D+00
      2 -0.655815D-02  0.611920D+00
      3 -0.449854D-02  0.117504D-02  0.100832D-01
      4 -0.741383D-02 -0.589999D-03  0.128275D-01  0.354481D+00
      5  0.234121D-01  0.256023D-01  0.241534D-02 -0.250764D-02  0.193015D+00
      6 -0.141694D-02  0.198494D-02  0.140990D-01  0.202322D-01 -0.497879D-02
      7 -0.381743D-02  0.412152D-04  0.172560D-02  0.166484D-03  0.846060D-03
      8  0.420121D-03 -0.287543D-03  0.141740D-03  0.933514D-04 -0.126124D-02
      9 -0.249193D-02 -0.109096D-02  0.937470D-03 -0.124596D-02  0.418457D-02
                6             7             8             9 
      6  0.549111D-01
      7 -0.624236D-02  0.124670D-01
      8  0.315971D-02  0.837659D-04  0.153855D-02
      9 -0.590895D-02  0.428626D-02  0.397064D-03  0.469093D-02
 Leave Link  716 at Wed Jun 15 08:27:18 2022, MaxMem=   262144000 cpu:               0.0 elap:               0.1
 (Enter /usr/local/gaussian/2016-C.01/g16/l103.exe)

 GradGradGradGradGradGradGradGradGradGradGradGradGradGradGradGradGradGrad
 Berny optimization.
 Red2BG is reusing G-inverse.
 Internal  Forces:  Max     0.000041140 RMS     0.000017569
 Search for a local minimum.
 Step number   1 out of a maximum of    2
 All quantities printed in internal units (Hartrees-Bohrs-Radians)
 Second derivative matrix not updated -- analytic derivatives used.
 The second derivative matrix:
                          R1        R2        R3        R4        A1
           R1           0.61466
           R2          -0.00656   0.61192
           R3          -0.00450   0.00118   0.01008
           R4          -0.00741  -0.00059   0.01283   0.35448
           A1           0.02341   0.02560   0.00242  -0.00251   0.19301
           A2          -0.00142   0.00198   0.01410   0.02023  -0.00498
           A3          -0.00382   0.00004   0.00173   0.00017   0.00085
           A4           0.00042  -0.00029   0.00014   0.00009  -0.00126
           D1          -0.00249  -0.00109   0.00094  -0.00125   0.00418
                          A2        A3        A4        D1
           A2           0.05491
           A3          -0.00624   0.01247
           A4           0.00316   0.00008   0.00154
           D1          -0.00591   0.00429   0.00040   0.00469
 ITU=  0
     Eigenvalues ---    0.00076   0.00261   0.00465   0.01484   0.05850
     Eigenvalues ---    0.19043   0.35619   0.60960   0.62019
 Angle between quadratic step and forces=  79.59 degrees.
 Linear search not attempted -- first point.
 Iteration  1 RMS(Cart)=  0.00076968 RMS(Int)=  0.00000139
 Iteration  2 RMS(Cart)=  0.00000177 RMS(Int)=  0.00000000
 Iteration  3 RMS(Cart)=  0.00000000 RMS(Int)=  0.00000000
 ITry= 1 IFail=0 DXMaxC= 1.59D-03 DCOld= 1.00D+10 DXMaxT= 3.00D-01 DXLimC= 3.00D+00 Rises=F
 Variable       Old X    -DE/DX   Delta X   Delta X   Delta X     New X
                                 (Linear)    (Quad)   (Total)
    R1        1.79183  -0.00001   0.00000  -0.00002  -0.00002   1.79181
    R2        1.79183  -0.00001   0.00000  -0.00002  -0.00002   1.79181
    R3        4.86074   0.00000   0.00000   0.00014   0.00014   4.86088
    R4        2.41312  -0.00004   0.00000  -0.00013  -0.00013   2.41299
    A1        1.85450   0.00002   0.00000   0.00015   0.00015   1.85464
    A2        0.72647   0.00002   0.00000   0.00011   0.00011   0.72657
    A3        3.38404  -0.00000   0.00000   0.00005   0.00005   3.38408
    A4        2.54419   0.00001   0.00000   0.00476   0.00476   2.54894
    D1       -2.43408  -0.00000   0.00000  -0.00062  -0.00062  -2.43471
         Item               Value     Threshold  Converged?
 Maximum Force            0.000041     0.000450     YES
 RMS     Force            0.000018     0.000300     YES
 Maximum Displacement     0.001590     0.001800     YES
 RMS     Displacement     0.000770     0.001200     YES
 Predicted change in Energy=-2.288688D-08
 Optimization completed.
    -- Stationary point found.
                           ----------------------------
                           !   Optimized Parameters   !
                           ! (Angstroms and Degrees)  !
 --------------------------                            --------------------------
 ! Name  Definition              Value          Derivative Info.                !
 --------------------------------------------------------------------------------
 ! R1    R(1,2)                  0.9482         -DE/DX =    0.0                 !
 ! R2    R(1,3)                  0.9482         -DE/DX =    0.0                 !
 ! R3    R(2,4)                  2.5722         -DE/DX =    0.0                 !
 ! R4    R(4,5)                  1.277          -DE/DX =    0.0                 !
 ! A1    A(2,1,3)              106.2548         -DE/DX =    0.0                 !
 ! A2    A(1,2,4)               41.6235         -DE/DX =    0.0                 !
 ! A3    L(2,4,5,3,-1)         193.891          -DE/DX =    0.0                 !
 ! A4    L(2,4,5,3,-2)         145.7711         -DE/DX =    0.0                 !
 ! D1    D(3,1,2,4)           -139.4627         -DE/DX =    0.0                 !
 --------------------------------------------------------------------------------
 GradGradGradGradGradGradGradGradGradGradGradGradGradGradGradGradGradGrad

 Leave Link  103 at Wed Jun 15 08:27:18 2022, MaxMem=   262144000 cpu:               0.0 elap:               0.0
 (Enter /usr/local/gaussian/2016-C.01/g16/l9999.exe)

 ----------------------------------------------------------------------

 Electric dipole moment (input orientation):
 (Debye = 10**-18 statcoulomb cm , SI units = C m)
                  (au)            (Debye)         (10**-30 SI)
   Tot        0.169539D+01      0.430924D+01      0.143741D+02
   x          0.533123D+00      0.135506D+01      0.452000D+01
   y         -0.126076D+01     -0.320453D+01     -0.106892D+02
   z         -0.100030D+01     -0.254251D+01     -0.848090D+01

 Dipole polarizability, Alpha (input orientation).
 (esu units = cm**3 , SI units = C**2 m**2 J**-1)
 Alpha(0;0):
               (au)            (10**-24 esu)      (10**-40 SI)
   iso        0.139154D+02      0.206204D+01      0.229433D+01
   aniso      0.937774D+01      0.138964D+01      0.154618D+01
   xx         0.122351D+02      0.181305D+01      0.201729D+01
   yx        -0.311768D+01     -0.461992D+00     -0.514036D+00
   yy         0.162155D+02      0.240289D+01      0.267358D+01
   zx        -0.315916D+01     -0.468140D+00     -0.520876D+00
   zy         0.231616D+01      0.343219D+00      0.381883D+00
   zz         0.132955D+02      0.197019D+01      0.219213D+01

 First dipole hyperpolarizability, Beta (input orientation).
 ||, _|_  parallel and perpendicular components, (z) with respect to z axis,
 vector components x,y,z.  Values do not include the 1/n! factor of 1/2.
 (esu units = statvolt**-1 cm**4 , SI units = C**3 m**3 J**-2)
 Beta(0;0,0):
               (au)            (10**-30 esu)      (10**-50 SI)
   || (z)    -0.474278D+01     -0.409739D-01     -0.152071D-01
   _|_(z)    -0.158093D+01     -0.136580D-01     -0.506902D-02
   x         -0.310781D+02     -0.268491D+00     -0.996476D-01
   y         -0.978490D+01     -0.845339D-01     -0.313739D-01
   z         -0.237139D+02     -0.204869D+00     -0.760353D-01
   ||         0.805963D+01      0.696289D-01      0.258421D-01
   xxx       -0.341975D+01     -0.295440D-01     -0.109650D-01
   xxy        0.360044D+01      0.311050D-01      0.115443D-01
   yxy       -0.104571D+02     -0.903414D-01     -0.335293D-01
   yyy       -0.129168D+02     -0.111591D+00     -0.414161D-01
   xxz        0.732645D+00      0.632949D-02      0.234913D-02
   yxz       -0.396158D+01     -0.342250D-01     -0.127023D-01
   yyz        0.906899D+01      0.783490D-01      0.290785D-01
   zxz        0.351751D+01      0.303886D-01      0.112784D-01
   zyz        0.605477D+01      0.523085D-01      0.194138D-01
   zzz       -0.177063D+02     -0.152968D+00     -0.567727D-01

 ----------------------------------------------------------------------

 Dipole orientation:
     8          0.97153306          0.46024629         -0.41826225
     1          0.37922191          1.81251534          0.59721956
     1          0.86973006         -1.01204201          0.59794226
     1          0.00863536          0.29112454         -4.00439661
    17         -0.76770424          0.15730866         -6.28530742

 Electric dipole moment (dipole orientation):
 (Debye = 10**-18 statcoulomb cm , SI units = C m)
                  (au)            (Debye)         (10**-30 SI)
   Tot        0.169539D+01      0.430924D+01      0.143741D+02
   x          0.000000D+00      0.000000D+00      0.000000D+00
   y          0.000000D+00      0.000000D+00      0.000000D+00
   z          0.169539D+01      0.430924D+01      0.143741D+02

 Dipole polarizability, Alpha (dipole orientation).
 (esu units = cm**3 , SI units = C**2 m**2 J**-1)
 Alpha(0;0):
               (au)            (10**-24 esu)      (10**-40 SI)
   iso        0.139154D+02      0.206204D+01      0.229433D+01
   aniso      0.937774D+01      0.138964D+01      0.154618D+01
   xx         0.991697D+01      0.146954D+01      0.163509D+01
   yx        -0.438275D+00     -0.649457D-01     -0.722618D-01
   yy         0.123609D+02      0.183170D+01      0.203804D+01
   zx         0.209104D+01      0.309860D+00      0.344766D+00
   zy         0.361253D+00      0.535322D-01      0.595627D-01
   zz         0.194682D+02      0.288490D+01      0.320988D+01

 First dipole hyperpolarizability, Beta (dipole orientation).
 ||, _|_  parallel and perpendicular components, (z) with respect to z axis,
 vector components x,y,z.  Values do not include the 1/n! factor of 1/2.
 (esu units = statvolt**-1 cm**4 , SI units = C**3 m**3 J**-2)
 Beta(0;0,0):
               (au)            (10**-30 esu)      (10**-50 SI)
   || (z)     0.229906D+01      0.198621D-01      0.737161D-02
   _|_(z)     0.766353D+00      0.662069D-02      0.245720D-02
   x         -0.380414D+02     -0.328648D+00     -0.121974D+00
   y         -0.668225D+01     -0.577295D-01     -0.214257D-01
   z          0.114953D+02      0.993103D-01      0.368581D-01
   ||         0.805963D+01      0.696289D-01      0.258421D-01
   xxx       -0.164675D+01     -0.142266D-01     -0.528007D-02
   xxy        0.132299D+01      0.114296D-01      0.424198D-02
   yxy       -0.426968D+01     -0.368867D-01     -0.136901D-01
   yyy       -0.234042D+01     -0.202194D-01     -0.750424D-02
   xxz       -0.280573D+00     -0.242393D-02     -0.899618D-03
   yxz       -0.316483D+01     -0.273417D-01     -0.101476D-01
   yyz        0.173515D+02      0.149903D+00      0.556351D-01
   zxz       -0.676403D+01     -0.584360D-01     -0.216879D-01
   zyz       -0.120998D+01     -0.104533D-01     -0.387964D-02
   zzz       -0.132391D+02     -0.114376D+00     -0.424495D-01

 ----------------------------------------------------------------------
 Unable to Open any file for archive entry.
 1\1\WWW.WCSS.PL-BEM-WN1038\Freq\RHF\6-31G(d)\Cl1H3O1\ROOT\15-Jun-2022\
 0\\#P Geom=AllCheck Guess=TCheck SCRF=Check GenChk RHF/6-31G(d) Freq\\
 rembiszewski\\0,1\O,0.3767218959,0.0813587567,0.473371228\H,0.14651436
 94,-0.8310582918,0.5898961535\H,0.6098810706,0.1816730578,-0.440221970
 8\H,-0.6847131234,1.4759983188,1.3662585186\Cl,-1.4391205665,2.3593427
 231,1.8965641505\\Version=EM64L-G16RevC.01\State=1-A\HF=-536.080068\RM
 SD=5.023e-10\RMSF=2.004e-05\ZeroPoint=0.0332376\Thermal=0.0383668\ETot
 =-536.0417012\HTot=-536.040757\GTot=-536.0731577\Dipole=0.5331229,-1.2
 607591,-1.0003001\DipoleDeriv=-0.809953,0.1302946,0.0135487,0.1270869,
 -0.6467916,-0.0328323,0.0102398,-0.0311935,-0.581306,0.3830115,-0.0218
 016,0.0260222,-0.0354299,0.2485585,-0.0101734,0.0261417,-0.0595201,0.3
 271738,0.3994312,-0.0070394,0.0218942,0.0145919,0.3119553,-0.0507044,0
 .0296713,-0.0049873,0.2473738,0.375289,-0.1563379,-0.0981921,-0.153184
 8,0.4632046,0.1389394,-0.0949858,0.1373902,0.3441829,-0.3477786,0.0548
 844,0.036727,0.0469358,-0.3769268,-0.0452294,0.0289331,-0.0416893,-0.3
 374244\Polar=12.2350558,-3.117678,16.2155285,-3.1591645,2.3161581,13.2
 95517\PolarDeriv=0.2047248,1.1196634,1.0486215,1.3157674,-0.0988651,-0
 .8923327,0.2752887,0.6004307,7.1740941,-0.4666528,0.5860539,0.5562513,
 0.6752783,-0.1218082,0.7078436,-1.6771881,0.8001726,6.6480858,-0.71408
 74,-1.4865979,-1.3554717,0.3463071,-0.1388431,-0.1405806,-0.0029772,-0
 .9397816,-7.5148739,0.248187,0.7090442,-0.4373783,0.094199,-0.253267,0
 .4220907,-0.2510427,-1.1785851,0.0951578,0.9863023,0.2188982,-0.128980
 5,-1.7872543,-0.1018885,0.8432236,0.1884976,0.0852858,0.1872288,-0.159
 7954,-1.0284653,0.2146888,-0.4345861,-0.0873231,-0.5314646,2.0077252,0
 .3077671,-7.1148986,4.116068,-3.9303037,2.5961819,-2.3752668,1.9247948
 ,0.7771051,-2.0594494,4.3824183,-6.4568665,1.9136473,-3.3974951,-1.057
 6854,-1.3088678,1.985369,-2.2033866,2.4913813,-3.082038,-2.5406978,-4.
 5930076,4.0783401,-2.1603512,2.5004467,-1.585198,-0.5874154,1.5986403,
 -4.1283531,6.6104175,-1.5353861,3.1308624,0.7241237,0.9739766,-1.52297
 07,1.604917,-2.5708756,3.1526833,2.9123527\HyperPolar=-3.4197547,3.600
 443,-10.4571222,-12.9168447,0.7326454,-3.9615821,9.0689904,3.5175123,6
 .0547686,-17.7062617\Quadrupole=-2.7327017,2.0422622,0.6904395,-0.9565
 112,-1.8658998,2.2435329\PG=C01 [X(Cl1H3O1)]\NImag=0\\0.08257868,0.153
 86918,0.63291396,-0.17014277,-0.09220988,0.62992005,-0.03892906,-0.128
 52286,0.03575856,0.04072437,-0.14289480,-0.55968178,0.08409059,0.14192
 641,0.56407306,0.02112667,0.01743787,-0.06539296,-0.03368643,-0.075316
 24,0.06823246,-0.03803271,-0.02949918,0.13084643,-0.00294106,0.0010200
 8,0.01385371,0.04108220,-0.01399901,-0.06582906,0.00972806,-0.01396039
 ,-0.00308690,0.05777765,0.02859706,0.06699856,0.14659107,0.07586792,-0
 .56014364,-0.00123841,-0.00850982,-0.00405008,-0.14580055,-0.06667622,
 0.56495150,-0.00422574,-0.00113223,0.00023581,0.00220023,-0.00012760,-
 0.00215802,0.00026409,-0.00143639,0.00074619,0.12397626,-0.00199933,-0
 .00288304,0.00333847,0.00021119,-0.00158004,0.00060659,-0.00042023,0.0
 0340934,-0.00104167,-0.13556363,0.16611751,-0.00062312,0.00373790,-0.0
 0381764,-0.00142632,-0.00031075,0.00208484,0.00135021,-0.00073941,-0.0
 0097098,-0.08185027,0.09351981,0.06447102,-0.00139116,0.00528509,0.003
 30197,-0.00105447,0.00007591,0.00086407,-0.00037253,0.00079873,-0.0002
 9830,-0.12221484,0.13777200,0.08254951,0.12503300,0.00502395,-0.004520
 08,-0.00494724,0.00034566,0.00027566,-0.00050587,0.00030227,-0.0014919
 4,0.00035979,0.13825984,-0.16506377,-0.09620755,-0.14393172,0.17080013
 ,0.00304815,-0.00483381,-0.00056580,0.00059260,0.00004623,-0.00087425,
 -0.00024980,-0.00009009,0.00021321,0.08302629,-0.09642321,-0.06176723,
 -0.08641725,0.10130088,0.06299407\\-0.00001010,0.00002074,0.00002881,0
 .00000328,-0.00001293,-0.00001479,-0.00000063,-0.00001077,-0.00001130,
 0.00003846,-0.00002009,-0.00001928,-0.00003101,0.00002305,0.00001656\\
 \@
 The archive entry for this job was punched.


 THE THINKER DIES, BUT HIS THOUGHTS ARE BEYOND THE 
 REACH OF DESTRUCTION.  MEN ARE MORTAL; BUT IDEAS 
 ARE IMMORTAL.
                              -- WALTER LIPPMANN
 Job cpu time:       0 days  0 hours  0 minutes  3.3 seconds.
 Elapsed time:       0 days  0 hours  0 minutes  3.5 seconds.
 File lengths (MBytes):  RWF=      6 Int=      0 D2E=      0 Chk=      1 Scr=      1
 Normal termination of Gaussian 16 at Wed Jun 15 08:27:18 2022.
