 Entering Gaussian System, Link 0=/usr/local/gaussian/2016-C.01/g16/g16
 Initial command:
 /usr/local/gaussian/2016-C.01/g16/l1.exe "/scratch/pbs.4261629.ossachilles/Gau-72145.inp" -scrdir="/scratch/pbs.4261629.ossachilles/"
 Entering Link 1 = /usr/local/gaussian/2016-C.01/g16/l1.exe PID=     72146.
  
 Copyright (c) 1988-2019, Gaussian, Inc.  All Rights Reserved.
  
 This is part of the Gaussian(R) 16 program.  It is based on
 the Gaussian(R) 09 system (copyright 2009, Gaussian, Inc.),
 the Gaussian(R) 03 system (copyright 2003, Gaussian, Inc.),
 the Gaussian(R) 98 system (copyright 1998, Gaussian, Inc.),
 the Gaussian(R) 94 system (copyright 1995, Gaussian, Inc.),
 the Gaussian 92(TM) system (copyright 1992, Gaussian, Inc.),
 the Gaussian 90(TM) system (copyright 1990, Gaussian, Inc.),
 the Gaussian 88(TM) system (copyright 1988, Gaussian, Inc.),
 the Gaussian 86(TM) system (copyright 1986, Carnegie Mellon
 University), and the Gaussian 82(TM) system (copyright 1983,
 Carnegie Mellon University). Gaussian is a federally registered
 trademark of Gaussian, Inc.
  
 This software contains proprietary and confidential information,
 including trade secrets, belonging to Gaussian, Inc.
  
 This software is provided under written license and may be
 used, copied, transmitted, or stored only in accord with that
 written license.
  
 The following legend is applicable only to US Government
 contracts under FAR:
  
                    RESTRICTED RIGHTS LEGEND
  
 Use, reproduction and disclosure by the US Government is
 subject to restrictions as set forth in subparagraphs (a)
 and (c) of the Commercial Computer Software - Restricted
 Rights clause in FAR 52.227-19.
  
 Gaussian, Inc.
 340 Quinnipiac St., Bldg. 40, Wallingford CT 06492
  
  
 ---------------------------------------------------------------
 Warning -- This program may not be used in any manner that
 competes with the business of Gaussian, Inc. or will provide
 assistance to any competitor of Gaussian, Inc.  The licensee
 of this program is prohibited from giving any competitor of
 Gaussian, Inc. access to this program.  By using this program,
 the user acknowledges that Gaussian, Inc. is engaged in the
 business of creating and licensing software in the field of
 computational chemistry and represents and warrants to the
 licensee that it is not a competitor of Gaussian, Inc. and that
 it will not use this program in any manner prohibited above.
 ---------------------------------------------------------------
  

 Cite this work as:
 Gaussian 16, Revision C.01,
 M. J. Frisch, G. W. Trucks, H. B. Schlegel, G. E. Scuseria, 
 M. A. Robb, J. R. Cheeseman, G. Scalmani, V. Barone, 
 G. A. Petersson, H. Nakatsuji, X. Li, M. Caricato, A. V. Marenich, 
 J. Bloino, B. G. Janesko, R. Gomperts, B. Mennucci, H. P. Hratchian, 
 J. V. Ortiz, A. F. Izmaylov, J. L. Sonnenberg, D. Williams-Young, 
 F. Ding, F. Lipparini, F. Egidi, J. Goings, B. Peng, A. Petrone, 
 T. Henderson, D. Ranasinghe, V. G. Zakrzewski, J. Gao, N. Rega, 
 G. Zheng, W. Liang, M. Hada, M. Ehara, K. Toyota, R. Fukuda, 
 J. Hasegawa, M. Ishida, T. Nakajima, Y. Honda, O. Kitao, H. Nakai, 
 T. Vreven, K. Throssell, J. A. Montgomery, Jr., J. E. Peralta, 
 F. Ogliaro, M. J. Bearpark, J. J. Heyd, E. N. Brothers, K. N. Kudin, 
 V. N. Staroverov, T. A. Keith, R. Kobayashi, J. Normand, 
 K. Raghavachari, A. P. Rendell, J. C. Burant, S. S. Iyengar, 
 J. Tomasi, M. Cossi, J. M. Millam, M. Klene, C. Adamo, R. Cammi, 
 J. W. Ochterski, R. L. Martin, K. Morokuma, O. Farkas, 
 J. B. Foresman, and D. J. Fox, Gaussian, Inc., Wallingford CT, 2019.
 
 ******************************************
 Gaussian 16:  EM64L-G16RevC.01  3-Jul-2019
                15-Jun-2022 
 ******************************************
 %nproc=1
 Will use up to    1 processors via shared memory.
 %mem=2000MB
 Default route: MAXDISK=1700GB
 ------------------------
 #p b3lyp/6-31g* opt freq
 ------------------------
 1/18=20,19=15,26=3,38=1/1,3;
 2/9=110,12=2,17=6,18=5,40=1/2;
 3/5=1,6=6,7=1,11=2,25=1,30=1,71=1,74=-5/1,2,3;
 4//1;
 5/5=2,38=5/2;
 6/7=2,8=2,9=2,10=2,28=1/1;
 7//1,2,3,16;
 1/18=20,19=15,26=3/3(2);
 2/9=110/2;
 99//99;
 2/9=110/2;
 3/5=1,6=6,7=1,11=2,25=1,30=1,71=1,74=-5/1,2,3;
 4/5=5,16=3,69=1/1;
 5/5=2,38=5/2;
 7//1,2,3,16;
 1/18=20,19=15,26=3/3(-5);
 2/9=110/2;
 6/7=2,8=2,9=2,10=2,19=2,28=1/1;
 99/9=1/99;
 Leave Link    1 at Wed Jun 15 08:22:02 2022, MaxMem=   262144000 cpu:               0.1 elap:               0.1
 (Enter /usr/local/gaussian/2016-C.01/g16/l101.exe)
 ------------
 rembiszewski
 ------------
 Symbolic Z-matrix:
 Charge =  0 Multiplicity = 1
 c
 o                    1    oc2
 cl                   1    clc3     2    clco3
 h                    1    hc4      3    hccl4    2    dih4     0
       Variables:
  oc2                   1.4                      
  clc3                  1.75                     
  clco3               109.471                    
  hc4                   1.089                    
  hccl4               109.471                    
  dih4                180.                       
 
     2 tetrahedral angles replaced.
 ITRead=  0  0  0  0
 MicOpt= -1 -1 -1 -1
 NAtoms=      4 NQM=        4 NQMF=       0 NMMI=      0 NMMIF=      0
                NMic=       0 NMicF=      0.
                    Isotopes and Nuclear Properties:
 (Nuclear quadrupole moments (NQMom) in fm**2, nuclear magnetic moments (NMagM)
  in nuclear magnetons)

  Atom         1           2           3           4
 IAtWgt=          12          16          35           1
 AtmWgt=  12.0000000  15.9949146  34.9688527   1.0078250
 NucSpn=           0           0           3           1
 AtZEff=  -0.0000000  -0.0000000  -0.0000000  -0.0000000
 NQMom=    0.0000000   0.0000000  -8.1650000   0.0000000
 NMagM=    0.0000000   0.0000000   0.8218740   2.7928460
 AtZNuc=   6.0000000   8.0000000  17.0000000   1.0000000
 Leave Link  101 at Wed Jun 15 08:22:02 2022, MaxMem=   262144000 cpu:               0.1 elap:               0.2
 (Enter /usr/local/gaussian/2016-C.01/g16/l103.exe)

 GradGradGradGradGradGradGradGradGradGradGradGradGradGradGradGradGradGrad
 Berny optimization.
 Initialization pass.
                           ----------------------------
                           !    Initial Parameters    !
                           ! (Angstroms and Degrees)  !
 --------------------------                            --------------------------
 ! Name  Definition              Value          Derivative Info.                !
 --------------------------------------------------------------------------------
 ! R1    R(1,2)                  1.4            estimate D2E/DX2                !
 ! R2    R(1,3)                  1.75           estimate D2E/DX2                !
 ! R3    R(1,4)                  1.089          estimate D2E/DX2                !
 ! A1    A(2,1,3)              109.4712         estimate D2E/DX2                !
 ! A2    A(2,1,4)              141.0576         estimate D2E/DX2                !
 ! A3    A(3,1,4)              109.4712         estimate D2E/DX2                !
 ! D1    D(2,1,4,3)            180.0            estimate D2E/DX2                !
 --------------------------------------------------------------------------------
 Trust Radius=3.00D-01 FncErr=1.00D-07 GrdErr=1.00D-06 EigMax=2.50D+02 EigMin=1.00D-04
 Number of steps in this run=     20 maximum allowed number of steps=    100.
 GradGradGradGradGradGradGradGradGradGradGradGradGradGradGradGradGradGrad

 Leave Link  103 at Wed Jun 15 08:22:02 2022, MaxMem=   262144000 cpu:               0.0 elap:               0.1
 (Enter /usr/local/gaussian/2016-C.01/g16/l202.exe)
                          Input orientation:                          
 ---------------------------------------------------------------------
 Center     Atomic      Atomic             Coordinates (Angstroms)
 Number     Number       Type             X           Y           Z
 ---------------------------------------------------------------------
      1          6           0        0.000000    0.000000    0.000000
      2          8           0        0.000000    0.000000    1.400000
      3         17           0        1.649916    0.000000   -0.583333
      4          1           0       -0.684479    0.000000   -0.847000
 ---------------------------------------------------------------------
                    Distance matrix (angstroms):
                    1          2          3          4
     1  C    0.000000
     2  O    1.400000   0.000000
     3  Cl   1.750000   2.579890   0.000000
     4  H    1.089000   2.348940   2.349238   0.000000
 Stoichiometry    CHClO
 Framework group  CS[SG(CHClO)]
 Deg. of freedom     5
 Full point group                 CS      NOp   2
 Largest Abelian subgroup         CS      NOp   2
 Largest concise Abelian subgroup C1      NOp   1
                         Standard orientation:                         
 ---------------------------------------------------------------------
 Center     Atomic      Atomic             Coordinates (Angstroms)
 Number     Number       Type             X           Y           Z
 ---------------------------------------------------------------------
      1          6           0        0.000000    0.855237   -0.000000
      2          8           0        1.399822    0.832916   -0.000000
      3         17           0       -0.609565   -0.785169    0.000000
      4          1           0       -0.835979    1.553133   -0.000000
 ---------------------------------------------------------------------
 Rotational constants (GHZ):          48.9798402           6.4379208           5.6900229
 Leave Link  202 at Wed Jun 15 08:22:02 2022, MaxMem=   262144000 cpu:               0.0 elap:               0.1
 (Enter /usr/local/gaussian/2016-C.01/g16/l301.exe)
 Standard basis: 6-31G(d) (6D, 7F)
 Ernie: Thresh=  0.10000D-02 Tol=  0.10000D-05 Strict=F.
 There are    38 symmetry adapted cartesian basis functions of A'  symmetry.
 There are    13 symmetry adapted cartesian basis functions of A"  symmetry.
 There are    38 symmetry adapted basis functions of A'  symmetry.
 There are    13 symmetry adapted basis functions of A"  symmetry.
    51 basis functions,   112 primitive gaussians,    51 cartesian basis functions
    16 alpha electrons       16 beta electrons
       nuclear repulsion energy        85.4296658743 Hartrees.
 IExCor=  402 DFT=T Ex+Corr=B3LYP ExCW=0 ScaHFX=  0.200000
 ScaDFX=  0.800000  0.720000  1.000000  0.810000 ScalE2=  1.000000  1.000000
 IRadAn=      5 IRanWt=     -1 IRanGd=            0 ICorTp=0 IEmpDi=  4
 NAtoms=    4 NActive=    4 NUniq=    4 SFac= 1.00D+00 NAtFMM=   60 NAOKFM=F Big=F
 Integral buffers will be    131072 words long.
 Raffenetti 2 integral format.
 Two-electron integral symmetry is turned on.
 Leave Link  301 at Wed Jun 15 08:22:02 2022, MaxMem=   262144000 cpu:               0.1 elap:               0.1
 (Enter /usr/local/gaussian/2016-C.01/g16/l302.exe)
 NPDir=0 NMtPBC=     1 NCelOv=     1 NCel=       1 NClECP=     1 NCelD=      1
         NCelK=      1 NCelE2=     1 NClLst=     1 CellRange=     0.0.
 One-electron integrals computed using PRISM.
 One-electron integral symmetry used in STVInt
 NBasis=    51 RedAO= T EigKep=  9.53D-03  NBF=    38    13
 NBsUse=    51 1.00D-06 EigRej= -1.00D+00 NBFU=    38    13
 Precomputing XC quadrature grid using
 IXCGrd= 4 IRadAn=           5 IRanWt=          -1 IRanGd=           0 AccXCQ= 0.00D+00.
 Generated NRdTot=       0 NPtTot=           0 NUsed=           0 NTot=          32
 NSgBfM=    51    51    51    51    51 MxSgAt=     4 MxSgA2=     4.
 Leave Link  302 at Wed Jun 15 08:22:02 2022, MaxMem=   262144000 cpu:               0.2 elap:               0.2
 (Enter /usr/local/gaussian/2016-C.01/g16/l303.exe)
 DipDrv:  MaxL=1.
 Leave Link  303 at Wed Jun 15 08:22:03 2022, MaxMem=   262144000 cpu:               0.0 elap:               0.1
 (Enter /usr/local/gaussian/2016-C.01/g16/l401.exe)
 ExpMin= 1.43D-01 ExpMax= 2.52D+04 ExpMxC= 3.78D+03 IAcc=3 IRadAn=         5 AccDes= 0.00D+00
 Harris functional with IExCor=  402 and IRadAn=       5 diagonalized for initial guess.
 HarFok:  IExCor=  402 AccDes= 0.00D+00 IRadAn=         5 IDoV= 1 UseB2=F ITyADJ=14
 ICtDFT=  3500011 ScaDFX=  1.000000  1.000000  1.000000  1.000000
 FoFCou: FMM=F IPFlag=           0 FMFlag=      100000 FMFlg1=           0
         NFxFlg=           0 DoJE=T BraDBF=F KetDBF=T FulRan=T
         wScrn=  0.000000 ICntrl=       500 IOpCl=  0 I1Cent=   200000004 NGrid=           0
         NMat0=    1 NMatS0=      1 NMatT0=    0 NMatD0=    1 NMtDS0=    0 NMtDT0=    0
 Petite list used in FoFCou.
 Harris En= -574.012877439052    
 JPrj=0 DoOrth=F DoCkMO=F.
 Initial guess orbital symmetries:
       Occupied  (A') (A') (A') (A') (A') (A') (A") (A') (A') (A')
                 (A') (A') (A") (A') (A") (A')
       Virtual   (A") (A') (A') (A') (A') (A') (A") (A') (A') (A")
                 (A') (A') (A') (A") (A') (A") (A') (A") (A') (A')
                 (A') (A') (A") (A") (A') (A') (A") (A') (A') (A")
                 (A') (A') (A') (A') (A')
 The electronic state of the initial guess is 1-A'.
 Leave Link  401 at Wed Jun 15 08:22:03 2022, MaxMem=   262144000 cpu:               0.4 elap:               0.5
 (Enter /usr/local/gaussian/2016-C.01/g16/l502.exe)
 Keep R1 ints in memory in symmetry-blocked form, NReq=1756466.
 FoFCou: FMM=F IPFlag=           0 FMFlag=           0 FMFlg1=           0
         NFxFlg=           0 DoJE=F BraDBF=F KetDBF=F FulRan=T
         wScrn=  0.000000 ICntrl=       600 IOpCl=  0 I1Cent=           0 NGrid=           0
         NMat0=    1 NMatS0=   1326 NMatT0=    0 NMatD0=    1 NMtDS0=    0 NMtDT0=    0
 Petite list used in FoFCou.
 Closed shell SCF:
 Using DIIS extrapolation, IDIIS=  1040.
 NGot=   262144000 LenX=   261665517 LenY=   261662475
 Requested convergence on RMS density matrix=1.00D-08 within 128 cycles.
 Requested convergence on MAX density matrix=1.00D-06.
 Requested convergence on             energy=1.00D-06.
 No special actions if energy rises.
 Integral accuracy reduced to 1.0D-05 until final iterations.

 Cycle   1  Pass 0  IDiag  1:
 E= -573.923528770826    
 DIIS: error= 5.60D-02 at cycle   1 NSaved=   1.
 NSaved= 1 IEnMin= 1 EnMin= -573.923528770826     IErMin= 1 ErrMin= 5.60D-02
 ErrMax= 5.60D-02  0.00D+00 EMaxC= 1.00D-01 BMatC= 1.46D-01 BMatP= 1.46D-01
 IDIUse=3 WtCom= 4.40D-01 WtEn= 5.60D-01
 Coeff-Com:  0.100D+01
 Coeff-En:   0.100D+01
 Coeff:      0.100D+01
 Gap=     0.240 Goal=   None    Shift=    0.000
 GapD=    0.240 DampG=1.000 DampE=0.500 DampFc=0.5000 IDamp=-1.
 Damping current iteration by 5.00D-01
 RMSDP=3.59D-02 MaxDP=3.45D-01              OVMax= 6.92D-01

 Cycle   2  Pass 0  IDiag  1:
 E= -573.571685436620     Delta-E=        0.351843334206 Rises=F Damp=T
 DIIS: error= 6.42D-02 at cycle   2 NSaved=   2.
 NSaved= 2 IEnMin= 1 EnMin= -573.923528770826     IErMin= 1 ErrMin= 5.60D-02
 ErrMax= 6.42D-02  0.00D+00 EMaxC= 1.00D-01 BMatC= 2.76D-01 BMatP= 1.46D-01
 IDIUse=2 WtCom= 0.00D+00 WtEn= 1.00D+00
 Coeff-En:   0.772D+00 0.228D+00
 Coeff:      0.772D+00 0.228D+00
 Gap=     0.071 Goal=   None    Shift=    0.000
 RMSDP=1.07D-02 MaxDP=9.76D-02 DE= 3.52D-01 OVMax= 4.62D-01

 Cycle   3  Pass 0  IDiag  1:
 E= -573.802839053017     Delta-E=       -0.231153616397 Rises=F Damp=F
 DIIS: error= 7.80D-02 at cycle   3 NSaved=   3.
 NSaved= 3 IEnMin= 1 EnMin= -573.923528770826     IErMin= 1 ErrMin= 5.60D-02
 ErrMax= 7.80D-02  0.00D+00 EMaxC= 1.00D-01 BMatC= 2.97D-01 BMatP= 1.46D-01
 IDIUse=2 WtCom= 0.00D+00 WtEn= 1.00D+00
 Coeff-En:   0.607D+00 0.000D+00 0.393D+00
 Coeff:      0.607D+00 0.000D+00 0.393D+00
 Gap=     0.168 Goal=   None    Shift=    0.000
 RMSDP=7.59D-03 MaxDP=1.12D-01 DE=-2.31D-01 OVMax= 2.05D-01

 Cycle   4  Pass 0  IDiag  1:
 E= -574.053904829988     Delta-E=       -0.251065776971 Rises=F Damp=F
 DIIS: error= 7.43D-03 at cycle   4 NSaved=   4.
 NSaved= 4 IEnMin= 4 EnMin= -574.053904829988     IErMin= 4 ErrMin= 7.43D-03
 ErrMax= 7.43D-03  0.00D+00 EMaxC= 1.00D-01 BMatC= 2.88D-03 BMatP= 1.46D-01
 IDIUse=3 WtCom= 9.26D-01 WtEn= 7.43D-02
 Coeff-Com:  0.928D-01 0.324D-01-0.455D-01 0.920D+00
 Coeff-En:   0.000D+00 0.000D+00 0.000D+00 0.100D+01
 Coeff:      0.859D-01 0.300D-01-0.422D-01 0.926D+00
 Gap=     0.184 Goal=   None    Shift=    0.000
 RMSDP=1.82D-03 MaxDP=2.59D-02 DE=-2.51D-01 OVMax= 3.54D-02

 Cycle   5  Pass 0  IDiag  1:
 E= -574.055325129206     Delta-E=       -0.001420299218 Rises=F Damp=F
 DIIS: error= 3.28D-03 at cycle   5 NSaved=   5.
 NSaved= 5 IEnMin= 5 EnMin= -574.055325129206     IErMin= 5 ErrMin= 3.28D-03
 ErrMax= 3.28D-03  0.00D+00 EMaxC= 1.00D-01 BMatC= 1.10D-03 BMatP= 2.88D-03
 IDIUse=3 WtCom= 9.67D-01 WtEn= 3.28D-02
 Coeff-Com:  0.171D-01 0.955D-02-0.371D-01 0.556D+00 0.454D+00
 Coeff-En:   0.000D+00 0.000D+00 0.000D+00 0.338D+00 0.662D+00
 Coeff:      0.165D-01 0.924D-02-0.359D-01 0.549D+00 0.461D+00
 Gap=     0.187 Goal=   None    Shift=    0.000
 RMSDP=8.51D-04 MaxDP=1.30D-02 DE=-1.42D-03 OVMax= 1.53D-02

 Cycle   6  Pass 0  IDiag  1:
 E= -574.056603266212     Delta-E=       -0.001278137006 Rises=F Damp=F
 DIIS: error= 3.37D-04 at cycle   6 NSaved=   6.
 NSaved= 6 IEnMin= 6 EnMin= -574.056603266212     IErMin= 6 ErrMin= 3.37D-04
 ErrMax= 3.37D-04  0.00D+00 EMaxC= 1.00D-01 BMatC= 9.75D-06 BMatP= 1.10D-03
 IDIUse=3 WtCom= 9.97D-01 WtEn= 3.37D-03
 Coeff-Com:  0.397D-03 0.125D-02-0.873D-02 0.110D+00 0.147D+00 0.750D+00
 Coeff-En:   0.000D+00 0.000D+00 0.000D+00 0.000D+00 0.000D+00 0.100D+01
 Coeff:      0.396D-03 0.125D-02-0.870D-02 0.110D+00 0.146D+00 0.751D+00
 Gap=     0.187 Goal=   None    Shift=    0.000
 RMSDP=8.74D-05 MaxDP=7.50D-04 DE=-1.28D-03 OVMax= 1.19D-03

 Cycle   7  Pass 0  IDiag  1:
 E= -574.056613877140     Delta-E=       -0.000010610928 Rises=F Damp=F
 DIIS: error= 5.73D-05 at cycle   7 NSaved=   7.
 NSaved= 7 IEnMin= 7 EnMin= -574.056613877140     IErMin= 7 ErrMin= 5.73D-05
 ErrMax= 5.73D-05  0.00D+00 EMaxC= 1.00D-01 BMatC= 4.35D-07 BMatP= 9.75D-06
 IDIUse=1 WtCom= 1.00D+00 WtEn= 0.00D+00
 Coeff-Com:  0.257D-04-0.843D-03-0.463D-03 0.109D-01 0.280D-01 0.203D+00
 Coeff-Com:  0.760D+00
 Coeff:      0.257D-04-0.843D-03-0.463D-03 0.109D-01 0.280D-01 0.203D+00
 Coeff:      0.760D+00
 Gap=     0.187 Goal=   None    Shift=    0.000
 RMSDP=1.96D-05 MaxDP=3.14D-04 DE=-1.06D-05 OVMax= 2.99D-04

 Cycle   8  Pass 0  IDiag  1:
 E= -574.056614250799     Delta-E=       -0.000000373659 Rises=F Damp=F
 DIIS: error= 5.97D-05 at cycle   8 NSaved=   8.
 NSaved= 8 IEnMin= 8 EnMin= -574.056614250799     IErMin= 7 ErrMin= 5.73D-05
 ErrMax= 5.97D-05  0.00D+00 EMaxC= 1.00D-01 BMatC= 1.92D-07 BMatP= 4.35D-07
 IDIUse=1 WtCom= 1.00D+00 WtEn= 0.00D+00
 Coeff-Com:  0.919D-04-0.785D-04-0.310D-03-0.457D-02-0.423D-02-0.217D-01
 Coeff-Com:  0.156D+00 0.875D+00
 Coeff:      0.919D-04-0.785D-04-0.310D-03-0.457D-02-0.423D-02-0.217D-01
 Coeff:      0.156D+00 0.875D+00
 Gap=     0.187 Goal=   None    Shift=    0.000
 RMSDP=8.99D-06 MaxDP=8.57D-05 DE=-3.74D-07 OVMax= 1.64D-04

 Initial convergence to 1.0D-05 achieved.  Increase integral accuracy.
 Cycle   9  Pass 1  IDiag  1:
 E= -574.056606545814     Delta-E=        0.000007704985 Rises=F Damp=F
 DIIS: error= 1.02D-05 at cycle   1 NSaved=   1.
 NSaved= 1 IEnMin= 1 EnMin= -574.056606545814     IErMin= 1 ErrMin= 1.02D-05
 ErrMax= 1.02D-05  0.00D+00 EMaxC= 1.00D-01 BMatC= 4.71D-09 BMatP= 4.71D-09
 IDIUse=1 WtCom= 1.00D+00 WtEn= 0.00D+00
 Coeff-Com:  0.100D+01
 Coeff:      0.100D+01
 Gap=     0.187 Goal=   None    Shift=    0.000
 RMSDP=8.99D-06 MaxDP=8.57D-05 DE= 7.70D-06 OVMax= 3.88D-05

 Cycle  10  Pass 1  IDiag  1:
 E= -574.056606542473     Delta-E=        0.000000003341 Rises=F Damp=F
 DIIS: error= 1.54D-05 at cycle   2 NSaved=   2.
 NSaved= 2 IEnMin= 1 EnMin= -574.056606545814     IErMin= 1 ErrMin= 1.02D-05
 ErrMax= 1.54D-05  0.00D+00 EMaxC= 1.00D-01 BMatC= 9.81D-09 BMatP= 4.71D-09
 IDIUse=1 WtCom= 1.00D+00 WtEn= 0.00D+00
 Coeff-Com:  0.622D+00 0.378D+00
 Coeff:      0.622D+00 0.378D+00
 Gap=     0.187 Goal=   None    Shift=    0.000
 RMSDP=2.07D-06 MaxDP=3.95D-05 DE= 3.34D-09 OVMax= 6.21D-05

 Cycle  11  Pass 1  IDiag  1:
 E= -574.056606547854     Delta-E=       -0.000000005381 Rises=F Damp=F
 DIIS: error= 8.77D-06 at cycle   3 NSaved=   3.
 NSaved= 3 IEnMin= 3 EnMin= -574.056606547854     IErMin= 3 ErrMin= 8.77D-06
 ErrMax= 8.77D-06  0.00D+00 EMaxC= 1.00D-01 BMatC= 3.49D-09 BMatP= 4.71D-09
 IDIUse=1 WtCom= 1.00D+00 WtEn= 0.00D+00
 Coeff-Com:  0.446D-01 0.364D+00 0.591D+00
 Coeff:      0.446D-01 0.364D+00 0.591D+00
 Gap=     0.187 Goal=   None    Shift=    0.000
 RMSDP=8.66D-07 MaxDP=1.44D-05 DE=-5.38D-09 OVMax= 2.26D-05

 Cycle  12  Pass 1  IDiag  1:
 E= -574.056606550697     Delta-E=       -0.000000002843 Rises=F Damp=F
 DIIS: error= 7.25D-07 at cycle   4 NSaved=   4.
 NSaved= 4 IEnMin= 4 EnMin= -574.056606550697     IErMin= 4 ErrMin= 7.25D-07
 ErrMax= 7.25D-07  0.00D+00 EMaxC= 1.00D-01 BMatC= 2.93D-11 BMatP= 3.49D-09
 IDIUse=1 WtCom= 1.00D+00 WtEn= 0.00D+00
 Coeff-Com: -0.925D-02 0.130D+00 0.224D+00 0.656D+00
 Coeff:     -0.925D-02 0.130D+00 0.224D+00 0.656D+00
 Gap=     0.187 Goal=   None    Shift=    0.000
 RMSDP=1.45D-07 MaxDP=1.30D-06 DE=-2.84D-09 OVMax= 2.35D-06

 Cycle  13  Pass 1  IDiag  1:
 E= -574.056606550720     Delta-E=       -0.000000000023 Rises=F Damp=F
 DIIS: error= 2.11D-07 at cycle   5 NSaved=   5.
 NSaved= 5 IEnMin= 5 EnMin= -574.056606550720     IErMin= 5 ErrMin= 2.11D-07
 ErrMax= 2.11D-07  0.00D+00 EMaxC= 1.00D-01 BMatC= 4.32D-12 BMatP= 2.93D-11
 IDIUse=1 WtCom= 1.00D+00 WtEn= 0.00D+00
 Coeff-Com: -0.698D-02 0.591D-01 0.978D-01 0.363D+00 0.487D+00
 Coeff:     -0.698D-02 0.591D-01 0.978D-01 0.363D+00 0.487D+00
 Gap=     0.187 Goal=   None    Shift=    0.000
 RMSDP=5.61D-08 MaxDP=7.70D-07 DE=-2.32D-11 OVMax= 7.66D-07

 Cycle  14  Pass 1  IDiag  1:
 E= -574.056606550725     Delta-E=       -0.000000000005 Rises=F Damp=F
 DIIS: error= 6.82D-08 at cycle   6 NSaved=   6.
 NSaved= 6 IEnMin= 6 EnMin= -574.056606550725     IErMin= 6 ErrMin= 6.82D-08
 ErrMax= 6.82D-08  0.00D+00 EMaxC= 1.00D-01 BMatC= 1.98D-13 BMatP= 4.32D-12
 IDIUse=1 WtCom= 1.00D+00 WtEn= 0.00D+00
 Coeff-Com: -0.122D-02 0.697D-02 0.671D-02 0.537D-01 0.174D+00 0.760D+00
 Coeff:     -0.122D-02 0.697D-02 0.671D-02 0.537D-01 0.174D+00 0.760D+00
 Gap=     0.187 Goal=   None    Shift=    0.000
 RMSDP=1.05D-08 MaxDP=1.65D-07 DE=-4.55D-12 OVMax= 1.79D-07

 Cycle  15  Pass 1  IDiag  1:
 E= -574.056606550725     Delta-E=        0.000000000000 Rises=F Damp=F
 DIIS: error= 1.05D-08 at cycle   7 NSaved=   7.
 NSaved= 7 IEnMin= 6 EnMin= -574.056606550725     IErMin= 7 ErrMin= 1.05D-08
 ErrMax= 1.05D-08  0.00D+00 EMaxC= 1.00D-01 BMatC= 8.80D-15 BMatP= 1.98D-13
 IDIUse=1 WtCom= 1.00D+00 WtEn= 0.00D+00
 Coeff-Com:  0.225D-03-0.225D-02-0.576D-02-0.121D-01 0.435D-03 0.160D+00
 Coeff-Com:  0.860D+00
 Coeff:      0.225D-03-0.225D-02-0.576D-02-0.121D-01 0.435D-03 0.160D+00
 Coeff:      0.860D+00
 Gap=     0.187 Goal=   None    Shift=    0.000
 RMSDP=2.67D-09 MaxDP=3.50D-08 DE= 0.00D+00 OVMax= 4.83D-08

 SCF Done:  E(RB3LYP) =  -574.056606551     A.U. after   15 cycles
            NFock= 15  Conv=0.27D-08     -V/T= 2.0049
 KE= 5.712561976654D+02 PE=-1.531307349949D+03 EE= 3.005648798586D+02
 Leave Link  502 at Wed Jun 15 08:22:07 2022, MaxMem=   262144000 cpu:               3.4 elap:               3.5
 (Enter /usr/local/gaussian/2016-C.01/g16/l601.exe)
 Copying SCF densities to generalized density rwf, IOpCl= 0 IROHF=0.

 **********************************************************************

            Population analysis using the SCF Density.

 **********************************************************************

 Orbital symmetries:
       Occupied  (A') (A') (A') (A') (A') (A") (A') (A') (A') (A')
                 (A') (A') (A") (A') (A") (A')
       Virtual   (A") (A') (A') (A') (A') (A') (A") (A') (A') (A")
                 (A') (A') (A') (A") (A") (A') (A') (A") (A') (A')
                 (A') (A') (A") (A") (A') (A') (A") (A') (A') (A")
                 (A') (A') (A') (A') (A')
 The electronic state is 1-A'.
 Alpha  occ. eigenvalues -- -101.57785 -19.19474 -10.37120  -9.49553  -7.25866
 Alpha  occ. eigenvalues --   -7.25089  -7.24877  -1.00136  -0.87522  -0.66067
 Alpha  occ. eigenvalues --   -0.49775  -0.44892  -0.40951  -0.34643  -0.32384
 Alpha  occ. eigenvalues --   -0.29046
 Alpha virt. eigenvalues --   -0.10370   0.00979   0.07750   0.16993   0.35504
 Alpha virt. eigenvalues --    0.41130   0.42940   0.43810   0.50115   0.51620
 Alpha virt. eigenvalues --    0.56588   0.75909   0.81126   0.81521   0.83452
 Alpha virt. eigenvalues --    0.83858   0.88307   0.95149   0.99063   1.05669
 Alpha virt. eigenvalues --    1.07965   1.39825   1.42455   1.62485   1.67992
 Alpha virt. eigenvalues --    1.81685   1.87695   1.98443   2.07663   2.31461
 Alpha virt. eigenvalues --    2.47540   2.77479   3.59601   3.99940   4.27968
          Condensed to atoms (all electrons):
               1          2          3          4
     1  C    4.958017   0.385016   0.240098   0.322674
     2  O    0.385016   8.091990  -0.084789  -0.021525
     3  Cl   0.240098  -0.084789  16.884526  -0.074577
     4  H    0.322674  -0.021525  -0.074577   0.531675
 Mulliken charges:
               1
     1  C    0.094196
     2  O   -0.370692
     3  Cl   0.034742
     4  H    0.241753
 Sum of Mulliken charges =   0.00000
 Mulliken charges with hydrogens summed into heavy atoms:
               1
     1  C    0.335949
     2  O   -0.370692
     3  Cl   0.034742
 Electronic spatial extent (au):  <R**2>=            215.6101
 Charge=             -0.0000 electrons
 Dipole moment (field-independent basis, Debye):
    X=             -2.5054    Y=              0.9725    Z=              0.0000  Tot=              2.6875
 Quadrupole moment (field-independent basis, Debye-Ang):
   XX=            -26.2099   YY=            -21.7436   ZZ=            -23.3948
   XY=             -2.9759   XZ=              0.0000   YZ=              0.0000
 Traceless Quadrupole moment (field-independent basis, Debye-Ang):
   XX=             -2.4271   YY=              2.0392   ZZ=              0.3879
   XY=             -2.9759   XZ=              0.0000   YZ=              0.0000
 Octapole moment (field-independent basis, Debye-Ang**2):
  XXX=             -1.8862  YYY=             -0.5520  ZZZ=              0.0000  XYY=             -4.5982
  XXY=             -1.7838  XXZ=              0.0000  XZZ=              0.8710  YZZ=              0.2114
  YYZ=              0.0000  XYZ=             -0.0000
 Hexadecapole moment (field-independent basis, Debye-Ang**3):
 XXXX=           -120.2149 YYYY=           -114.4791 ZZZZ=            -22.6525 XXXY=            -38.7675
 XXXZ=             -0.0000 YYYX=            -37.3043 YYYZ=             -0.0000 ZZZX=             -0.0000
 ZZZY=             -0.0000 XXYY=            -39.9703 XXZZ=            -23.0021 YYZZ=            -24.1400
 XXYZ=             -0.0000 YYXZ=             -0.0000 ZZXY=            -11.3737
 N-N= 8.542966587427D+01 E-N=-1.531307349069D+03  KE= 5.712561976654D+02
 Symmetry A'   KE= 5.219225866681D+02
 Symmetry A"   KE= 4.933361099728D+01
 No NMR shielding tensors so no spin-rotation constants.
 Leave Link  601 at Wed Jun 15 08:22:07 2022, MaxMem=   262144000 cpu:               0.1 elap:               0.2
 (Enter /usr/local/gaussian/2016-C.01/g16/l701.exe)
 ... and contract with generalized density number  0.
 Compute integral first derivatives.
 Leave Link  701 at Wed Jun 15 08:22:07 2022, MaxMem=   262144000 cpu:               0.1 elap:               0.2
 (Enter /usr/local/gaussian/2016-C.01/g16/l702.exe)
 L702 exits ... SP integral derivatives will be done elsewhere.
 Leave Link  702 at Wed Jun 15 08:22:07 2022, MaxMem=   262144000 cpu:               0.0 elap:               0.0
 (Enter /usr/local/gaussian/2016-C.01/g16/l703.exe)
 Integral derivatives from FoFJK, PRISM(SPDF).
 Compute integral first derivatives, UseDBF=F ICtDFT=           0.
 Calling FoFJK, ICntrl=      2127 FMM=F ISym2X=1 I1Cent= 0 IOpClX= 0 NMat=1 NMatS=1 NMatT=0.
 FoFJK:  IHMeth= 1 ICntrl=    2127 DoSepK=F KAlg= 0 I1Cent=           0 FoldK=F
 IRaf=         0 NMat=       1 IRICut=       1 DoRegI=T DoRafI=F ISym2E= 1 IDoP0=0 IntGTp=1.
 FoFCou: FMM=F IPFlag=           0 FMFlag=      100000 FMFlg1=         800
         NFxFlg=           0 DoJE=F BraDBF=F KetDBF=F FulRan=T
         wScrn=  0.000000 ICntrl=      2127 IOpCl=  0 I1Cent=           0 NGrid=           0
         NMat0=    1 NMatS0=      1 NMatT0=    0 NMatD0=    1 NMtDS0=    0 NMtDT0=    0
 Petite list used in FoFCou.
 Leave Link  703 at Wed Jun 15 08:22:08 2022, MaxMem=   262144000 cpu:               1.0 elap:               1.1
 (Enter /usr/local/gaussian/2016-C.01/g16/l716.exe)
 Dipole        =-9.85690869D-01 3.82622301D-01 8.67861476D-32
 ***** Axes restored to original set *****
 -------------------------------------------------------------------
 Center     Atomic                   Forces (Hartrees/Bohr)
 Number     Number              X              Y              Z
 -------------------------------------------------------------------
      1        6           0.053681082   -0.000000000    0.184954682
      2        8          -0.034490856    0.000000000   -0.183093948
      3       17          -0.002406306    0.000000000   -0.014540335
      4        1          -0.016783919    0.000000000    0.012679601
 -------------------------------------------------------------------
 Cartesian Forces:  Max     0.184954682 RMS     0.077708102
 Leave Link  716 at Wed Jun 15 08:22:09 2022, MaxMem=   262144000 cpu:               0.0 elap:               0.1
 (Enter /usr/local/gaussian/2016-C.01/g16/l103.exe)

 GradGradGradGradGradGradGradGradGradGradGradGradGradGradGradGradGradGrad
 Berny optimization.
 FormGI is forming the generalized inverse of G from B-inverse, IUseBI=4.
 Internal  Forces:  Max     0.183094017 RMS     0.073385085
 Search for a local minimum.
 Step number   1 out of a maximum of   20
 All quantities printed in internal units (Hartrees-Bohrs-Radians)
 RMS Force = .73385D-01 SwitMx=.10000D-02 MixMth= 1
 Mixed Optimization -- RFO/linear search
 Second derivative matrix not updated -- first step.
 The second derivative matrix:
                          R1        R2        R3        A1        A2
           R1           0.45621
           R2           0.00000   0.30487
           R3           0.00000   0.00000   0.34928
           A1           0.00000   0.00000   0.00000   0.25000
           A2           0.00000   0.00000   0.00000   0.00000   0.16000
           A3           0.00000   0.00000   0.00000   0.00000   0.00000
           D1           0.00000   0.00000   0.00000   0.00000   0.00000
                          A3        D1
           A3           0.16000
           D1           0.00000   0.00248
 ITU=  0
     Eigenvalues ---    0.00248   0.16000   0.22000   0.30487   0.34928
     Eigenvalues ---    0.45621
 RFO step:  Lambda=-7.76133765D-02 EMin= 2.48058206D-03
 Linear search not attempted -- first point.
 Maximum step size (   0.300) exceeded in Quadratic search.
    -- Step size scaled by   0.726
 Iteration  1 RMS(Cart)=  0.09530153 RMS(Int)=  0.02172203
 Iteration  2 RMS(Cart)=  0.01945710 RMS(Int)=  0.00006470
 Iteration  3 RMS(Cart)=  0.00007119 RMS(Int)=  0.00000000
 Iteration  4 RMS(Cart)=  0.00000000 RMS(Int)=  0.00000000
 ITry= 1 IFail=0 DXMaxC= 1.77D-01 DCOld= 1.00D+10 DXMaxT= 3.00D-01 DXLimC= 3.00D+00 Rises=F
 ClnCor:  largest displacement from symmetrization is 1.00D-09 for atom     1.
 Variable       Old X    -DE/DX   Delta X   Delta X   Delta X     New X
                                 (Linear)    (Quad)   (Total)
    R1        2.64562  -0.18309   0.00000  -0.24902  -0.24902   2.39660
    R2        3.30702   0.00258   0.00000   0.00489   0.00489   3.31191
    R3        2.05791   0.00069   0.00000   0.00117   0.00117   2.05908
    A1        1.91063   0.04641   0.00000   0.11322   0.11322   2.02385
    A2        2.46192  -0.04484   0.00000  -0.12271  -0.12271   2.33921
    A3        1.91063  -0.00157   0.00000   0.00949   0.00949   1.92012
    D1        3.14159  -0.00000   0.00000  -0.00000   0.00000   3.14159
         Item               Value     Threshold  Converged?
 Maximum Force            0.183094     0.000450     NO 
 RMS     Force            0.073385     0.000300     NO 
 Maximum Displacement     0.177168     0.001800     NO 
 RMS     Displacement     0.104899     0.001200     NO 
 Predicted change in Energy=-3.938619D-02
 Lowest energy point so far.  Saving SCF results.
 GradGradGradGradGradGradGradGradGradGradGradGradGradGradGradGradGradGrad

 Leave Link  103 at Wed Jun 15 08:22:09 2022, MaxMem=   262144000 cpu:               0.0 elap:               0.1
 (Enter /usr/local/gaussian/2016-C.01/g16/l202.exe)
                          Input orientation:                          
 ---------------------------------------------------------------------
 Center     Atomic      Atomic             Coordinates (Angstroms)
 Number     Number       Type             X           Y           Z
 ---------------------------------------------------------------------
      1          6           0        0.039059    0.000000    0.041540
      2          8           0       -0.055361   -0.000000    1.306247
      3         17           0        1.667575    0.000000   -0.606152
      4          1           0       -0.685836    0.000000   -0.771968
 ---------------------------------------------------------------------
                    Distance matrix (angstroms):
                    1          2          3          4
     1  C    0.000000
     2  O    1.268227   0.000000
     3  Cl   1.752590   2.574059   0.000000
     4  H    1.089619   2.171745   2.359246   0.000000
 Stoichiometry    CHClO
 Framework group  CS[SG(CHClO)]
 Deg. of freedom     5
 Full point group                 CS      NOp   2
 RotChk:  IX=0 Diff= 1.14D-01
 Largest Abelian subgroup         CS      NOp   2
 Largest concise Abelian subgroup C1      NOp   1
                         Standard orientation:                         
 ---------------------------------------------------------------------
 Center     Atomic      Atomic             Coordinates (Angstroms)
 Number     Number       Type             X           Y           Z
 ---------------------------------------------------------------------
      1          6           0        0.000000    0.820626    0.000000
      2          8           0        1.255897    0.997039    0.000000
      3         17           0       -0.540487   -0.846540   -0.000000
      4          1           0       -0.858899    1.491120   -0.000000
 ---------------------------------------------------------------------
 Rotational constants (GHZ):          62.0737491           6.3775849           5.7833877
 Leave Link  202 at Wed Jun 15 08:22:09 2022, MaxMem=   262144000 cpu:               0.0 elap:               0.0
 (Enter /usr/local/gaussian/2016-C.01/g16/l301.exe)
 Standard basis: 6-31G(d) (6D, 7F)
 Ernie: Thresh=  0.10000D-02 Tol=  0.10000D-05 Strict=F.
 There are    38 symmetry adapted cartesian basis functions of A'  symmetry.
 There are    13 symmetry adapted cartesian basis functions of A"  symmetry.
 There are    38 symmetry adapted basis functions of A'  symmetry.
 There are    13 symmetry adapted basis functions of A"  symmetry.
    51 basis functions,   112 primitive gaussians,    51 cartesian basis functions
    16 alpha electrons       16 beta electrons
       nuclear repulsion energy        87.4615842831 Hartrees.
 IExCor=  402 DFT=T Ex+Corr=B3LYP ExCW=0 ScaHFX=  0.200000
 ScaDFX=  0.800000  0.720000  1.000000  0.810000 ScalE2=  1.000000  1.000000
 IRadAn=      5 IRanWt=     -1 IRanGd=            0 ICorTp=0 IEmpDi=  4
 NAtoms=    4 NActive=    4 NUniq=    4 SFac= 1.00D+00 NAtFMM=   60 NAOKFM=F Big=F
 Integral buffers will be    131072 words long.
 Raffenetti 2 integral format.
 Two-electron integral symmetry is turned on.
 Leave Link  301 at Wed Jun 15 08:22:09 2022, MaxMem=   262144000 cpu:               0.1 elap:               0.1
 (Enter /usr/local/gaussian/2016-C.01/g16/l302.exe)
 NPDir=0 NMtPBC=     1 NCelOv=     1 NCel=       1 NClECP=     1 NCelD=      1
         NCelK=      1 NCelE2=     1 NClLst=     1 CellRange=     0.0.
 One-electron integrals computed using PRISM.
 One-electron integral symmetry used in STVInt
 NBasis=    51 RedAO= T EigKep=  7.81D-03  NBF=    38    13
 NBsUse=    51 1.00D-06 EigRej= -1.00D+00 NBFU=    38    13
 Precomputing XC quadrature grid using
 IXCGrd= 4 IRadAn=           5 IRanWt=          -1 IRanGd=           0 AccXCQ= 0.00D+00.
 Generated NRdTot=       0 NPtTot=           0 NUsed=           0 NTot=          32
 NSgBfM=    51    51    51    51    51 MxSgAt=     4 MxSgA2=     4.
 Leave Link  302 at Wed Jun 15 08:22:09 2022, MaxMem=   262144000 cpu:               0.2 elap:               0.2
 (Enter /usr/local/gaussian/2016-C.01/g16/l303.exe)
 DipDrv:  MaxL=1.
 Leave Link  303 at Wed Jun 15 08:22:09 2022, MaxMem=   262144000 cpu:               0.0 elap:               0.0
 (Enter /usr/local/gaussian/2016-C.01/g16/l401.exe)
 Initial guess from the checkpoint file:  "/scratch/pbs.4261629.ossachilles/Gau-72146.chk"
 B after Tr=    -0.000000   -0.000000   -0.000000
         Rot=    0.998782   -0.000000   -0.000000   -0.049341 Ang=  -5.66 deg.
 Guess basis will be translated and rotated to current coordinates.
 JPrj=2 DoOrth=T DoCkMO=T.
 Initial guess orbital symmetries:
       Occupied  (A') (A') (A') (A') (A') (A") (A') (A') (A') (A')
                 (A') (A') (A") (A') (A") (A')
       Virtual   (A") (A') (A') (A') (A') (A') (A") (A') (A') (A")
                 (A') (A') (A') (A") (A") (A') (A') (A") (A') (A')
                 (A') (A') (A") (A") (A') (A') (A") (A') (A') (A")
                 (A') (A') (A') (A') (A')
 The electronic state of the initial guess is 1-A'.
 Generating alternative initial guess.
 ExpMin= 1.43D-01 ExpMax= 2.52D+04 ExpMxC= 3.78D+03 IAcc=3 IRadAn=         5 AccDes= 0.00D+00
 Harris functional with IExCor=  402 and IRadAn=       5 diagonalized for initial guess.
 HarFok:  IExCor=  402 AccDes= 0.00D+00 IRadAn=         5 IDoV= 1 UseB2=F ITyADJ=14
 ICtDFT=  3500011 ScaDFX=  1.000000  1.000000  1.000000  1.000000
 FoFCou: FMM=F IPFlag=           0 FMFlag=      100000 FMFlg1=           0
         NFxFlg=           0 DoJE=T BraDBF=F KetDBF=T FulRan=T
         wScrn=  0.000000 ICntrl=       500 IOpCl=  0 I1Cent=   200000004 NGrid=           0
         NMat0=    1 NMatS0=      1 NMatT0=    0 NMatD0=    1 NMtDS0=    0 NMtDT0=    0
 Petite list used in FoFCou.
 Harris En= -574.047874993048    
 Leave Link  401 at Wed Jun 15 08:22:09 2022, MaxMem=   262144000 cpu:               0.5 elap:               0.5
 (Enter /usr/local/gaussian/2016-C.01/g16/l502.exe)
 Keep R1 ints in memory in symmetry-blocked form, NReq=1756466.
 FoFCou: FMM=F IPFlag=           0 FMFlag=           0 FMFlg1=           0
         NFxFlg=           0 DoJE=F BraDBF=F KetDBF=F FulRan=T
         wScrn=  0.000000 ICntrl=       600 IOpCl=  0 I1Cent=           0 NGrid=           0
         NMat0=    1 NMatS0=   1326 NMatT0=    0 NMatD0=    1 NMtDS0=    0 NMtDT0=    0
 Petite list used in FoFCou.
 Closed shell SCF:
 Using DIIS extrapolation, IDIIS=  1040.
 NGot=   262144000 LenX=   261665517 LenY=   261662475
 Requested convergence on RMS density matrix=1.00D-08 within 128 cycles.
 Requested convergence on MAX density matrix=1.00D-06.
 Requested convergence on             energy=1.00D-06.
 No special actions if energy rises.
 Integral accuracy reduced to 1.0D-05 until final iterations.

 Cycle   1  Pass 0  IDiag  1:
 E= -574.091626599816    
 DIIS: error= 1.14D-02 at cycle   1 NSaved=   1.
 NSaved= 1 IEnMin= 1 EnMin= -574.091626599816     IErMin= 1 ErrMin= 1.14D-02
 ErrMax= 1.14D-02  0.00D+00 EMaxC= 1.00D-01 BMatC= 7.76D-03 BMatP= 7.76D-03
 IDIUse=3 WtCom= 8.86D-01 WtEn= 1.14D-01
 Coeff-Com:  0.100D+01
 Coeff-En:   0.100D+01
 Coeff:      0.100D+01
 Recover alternate guess density for next cycle.
 RMSDP=6.20D-03 MaxDP=1.08D-01              OVMax= 0.00D+00

 Cycle   2  Pass 0  IDiag  1:
 E= -574.003270674814     Delta-E=        0.088355925003 Rises=F Damp=F
 Switch densities from cycles 1 and 2 for lowest energy.
 DIIS: error= 4.40D-02 at cycle   2 NSaved=   2.
 NSaved= 2 IEnMin= 1 EnMin= -574.091626599816     IErMin= 1 ErrMin= 1.14D-02
 ErrMax= 4.40D-02  0.00D+00 EMaxC= 1.00D+00 BMatC= 1.21D-01 BMatP= 7.76D-03
 IDIUse=1 WtCom= 1.00D+00 WtEn= 0.00D+00
 Coeff-Com:  0.895D+00 0.105D+00
 Coeff:      0.895D+00 0.105D+00
 Gap=     0.229 Goal=   None    Shift=    0.000
 RMSDP=3.13D-03 MaxDP=2.68D-02 DE= 8.84D-02 OVMax= 5.19D-02

 Cycle   3  Pass 0  IDiag  1:
 E= -574.100047396291     Delta-E=       -0.096776721477 Rises=F Damp=F
 DIIS: error= 9.89D-03 at cycle   3 NSaved=   3.
 NSaved= 3 IEnMin= 3 EnMin= -574.100047396291     IErMin= 3 ErrMin= 9.89D-03
 ErrMax= 9.89D-03  0.00D+00 EMaxC= 1.00D+00 BMatC= 4.02D-03 BMatP= 7.76D-03
 IDIUse=1 WtCom= 1.00D+00 WtEn= 0.00D+00
 Coeff-Com:  0.104D+00 0.135D+00 0.762D+00
 Coeff:      0.104D+00 0.135D+00 0.762D+00
 Gap=     0.230 Goal=   None    Shift=    0.000
 RMSDP=1.22D-03 MaxDP=1.69D-02 DE=-9.68D-02 OVMax= 2.47D-02

 Cycle   4  Pass 0  IDiag  1:
 E= -574.103258801705     Delta-E=       -0.003211405414 Rises=F Damp=F
 DIIS: error= 3.04D-03 at cycle   4 NSaved=   4.
 NSaved= 4 IEnMin= 4 EnMin= -574.103258801705     IErMin= 4 ErrMin= 3.04D-03
 ErrMax= 3.04D-03  0.00D+00 EMaxC= 1.00D+00 BMatC= 3.21D-04 BMatP= 4.02D-03
 IDIUse=1 WtCom= 1.00D+00 WtEn= 0.00D+00
 Coeff-Com: -0.148D-01 0.339D-01 0.321D+00 0.660D+00
 Coeff:     -0.148D-01 0.339D-01 0.321D+00 0.660D+00
 Gap=     0.227 Goal=   None    Shift=    0.000
 RMSDP=4.00D-04 MaxDP=5.12D-03 DE=-3.21D-03 OVMax= 8.44D-03

 Cycle   5  Pass 0  IDiag  1:
 E= -574.103487879052     Delta-E=       -0.000229077348 Rises=F Damp=F
 DIIS: error= 7.55D-04 at cycle   5 NSaved=   5.
 NSaved= 5 IEnMin= 5 EnMin= -574.103487879052     IErMin= 5 ErrMin= 7.55D-04
 ErrMax= 7.55D-04  0.00D+00 EMaxC= 1.00D+00 BMatC= 5.96D-05 BMatP= 3.21D-04
 IDIUse=1 WtCom= 1.00D+00 WtEn= 0.00D+00
 Coeff-Com: -0.104D-01 0.321D-02 0.103D+00 0.377D+00 0.528D+00
 Coeff:     -0.104D-01 0.321D-02 0.103D+00 0.377D+00 0.528D+00
 Gap=     0.228 Goal=   None    Shift=    0.000
 RMSDP=2.14D-04 MaxDP=3.15D-03 DE=-2.29D-04 OVMax= 3.36D-03

 Cycle   6  Pass 0  IDiag  1:
 E= -574.103557316239     Delta-E=       -0.000069437187 Rises=F Damp=F
 DIIS: error= 8.71D-05 at cycle   6 NSaved=   6.
 NSaved= 6 IEnMin= 6 EnMin= -574.103557316239     IErMin= 6 ErrMin= 8.71D-05
 ErrMax= 8.71D-05  0.00D+00 EMaxC= 1.00D+00 BMatC= 6.25D-07 BMatP= 5.96D-05
 IDIUse=1 WtCom= 1.00D+00 WtEn= 0.00D+00
 Coeff-Com: -0.194D-02-0.486D-03 0.171D-01 0.940D-01 0.168D+00 0.723D+00
 Coeff:     -0.194D-02-0.486D-03 0.171D-01 0.940D-01 0.168D+00 0.723D+00
 Gap=     0.228 Goal=   None    Shift=    0.000
 RMSDP=2.59D-05 MaxDP=4.88D-04 DE=-6.94D-05 OVMax= 2.42D-04

 Cycle   7  Pass 0  IDiag  1:
 E= -574.103557977014     Delta-E=       -0.000000660775 Rises=F Damp=F
 DIIS: error= 2.01D-05 at cycle   7 NSaved=   7.
 NSaved= 7 IEnMin= 7 EnMin= -574.103557977014     IErMin= 7 ErrMin= 2.01D-05
 ErrMax= 2.01D-05  0.00D+00 EMaxC= 1.00D+00 BMatC= 3.22D-08 BMatP= 6.25D-07
 IDIUse=1 WtCom= 1.00D+00 WtEn= 0.00D+00
 Coeff-Com: -0.306D-03-0.882D-04-0.382D-03 0.957D-02 0.222D-01 0.162D+00
 Coeff-Com:  0.807D+00
 Coeff:     -0.306D-03-0.882D-04-0.382D-03 0.957D-02 0.222D-01 0.162D+00
 Coeff:      0.807D+00
 Gap=     0.228 Goal=   None    Shift=    0.000
 RMSDP=3.84D-06 MaxDP=4.76D-05 DE=-6.61D-07 OVMax= 4.84D-05

 Initial convergence to 1.0D-05 achieved.  Increase integral accuracy.
 Cycle   8  Pass 1  IDiag  1:
 E= -574.103562602984     Delta-E=       -0.000004625970 Rises=F Damp=F
 DIIS: error= 4.21D-06 at cycle   1 NSaved=   1.
 NSaved= 1 IEnMin= 1 EnMin= -574.103562602984     IErMin= 1 ErrMin= 4.21D-06
 ErrMax= 4.21D-06  0.00D+00 EMaxC= 1.00D+00 BMatC= 2.78D-09 BMatP= 2.78D-09
 IDIUse=1 WtCom= 1.00D+00 WtEn= 0.00D+00
 Coeff-Com:  0.100D+01
 Coeff:      0.100D+01
 Gap=     0.228 Goal=   None    Shift=    0.000
 RMSDP=3.84D-06 MaxDP=4.76D-05 DE=-4.63D-06 OVMax= 2.67D-05

 Cycle   9  Pass 1  IDiag  1:
 E= -574.103562603536     Delta-E=       -0.000000000552 Rises=F Damp=F
 DIIS: error= 7.54D-06 at cycle   2 NSaved=   2.
 NSaved= 2 IEnMin= 2 EnMin= -574.103562603536     IErMin= 1 ErrMin= 4.21D-06
 ErrMax= 7.54D-06  0.00D+00 EMaxC= 1.00D+00 BMatC= 2.95D-09 BMatP= 2.78D-09
 IDIUse=1 WtCom= 1.00D+00 WtEn= 0.00D+00
 Coeff-Com:  0.509D+00 0.491D+00
 Coeff:      0.509D+00 0.491D+00
 Gap=     0.228 Goal=   None    Shift=    0.000
 RMSDP=1.38D-06 MaxDP=2.11D-05 DE=-5.52D-10 OVMax= 3.12D-05

 Cycle  10  Pass 1  IDiag  1:
 E= -574.103562604889     Delta-E=       -0.000000001353 Rises=F Damp=F
 DIIS: error= 5.80D-06 at cycle   3 NSaved=   3.
 NSaved= 3 IEnMin= 3 EnMin= -574.103562604889     IErMin= 1 ErrMin= 4.21D-06
 ErrMax= 5.80D-06  0.00D+00 EMaxC= 1.00D+00 BMatC= 1.57D-09 BMatP= 2.78D-09
 IDIUse=1 WtCom= 1.00D+00 WtEn= 0.00D+00
 Coeff-Com:  0.155D+00 0.394D+00 0.451D+00
 Coeff:      0.155D+00 0.394D+00 0.451D+00
 Gap=     0.228 Goal=   None    Shift=    0.000
 RMSDP=5.79D-07 MaxDP=1.03D-05 DE=-1.35D-09 OVMax= 1.28D-05

 Cycle  11  Pass 1  IDiag  1:
 E= -574.103562606102     Delta-E=       -0.000000001214 Rises=F Damp=F
 DIIS: error= 5.23D-07 at cycle   4 NSaved=   4.
 NSaved= 4 IEnMin= 4 EnMin= -574.103562606102     IErMin= 4 ErrMin= 5.23D-07
 ErrMax= 5.23D-07  0.00D+00 EMaxC= 1.00D+00 BMatC= 3.07D-11 BMatP= 1.57D-09
 IDIUse=1 WtCom= 1.00D+00 WtEn= 0.00D+00
 Coeff-Com: -0.685D-02 0.107D+00 0.183D+00 0.717D+00
 Coeff:     -0.685D-02 0.107D+00 0.183D+00 0.717D+00
 Gap=     0.228 Goal=   None    Shift=    0.000
 RMSDP=1.46D-07 MaxDP=3.12D-06 DE=-1.21D-09 OVMax= 1.73D-06

 Cycle  12  Pass 1  IDiag  1:
 E= -574.103562606125     Delta-E=       -0.000000000023 Rises=F Damp=F
 DIIS: error= 1.43D-07 at cycle   5 NSaved=   5.
 NSaved= 5 IEnMin= 5 EnMin= -574.103562606125     IErMin= 5 ErrMin= 1.43D-07
 ErrMax= 1.43D-07  0.00D+00 EMaxC= 1.00D+00 BMatC= 2.15D-12 BMatP= 3.07D-11
 IDIUse=1 WtCom= 1.00D+00 WtEn= 0.00D+00
 Coeff-Com: -0.803D-02 0.412D-01 0.774D-01 0.355D+00 0.535D+00
 Coeff:     -0.803D-02 0.412D-01 0.774D-01 0.355D+00 0.535D+00
 Gap=     0.228 Goal=   None    Shift=    0.000
 RMSDP=4.72D-08 MaxDP=6.43D-07 DE=-2.30D-11 OVMax= 6.98D-07

 Cycle  13  Pass 1  IDiag  1:
 E= -574.103562606130     Delta-E=       -0.000000000004 Rises=F Damp=F
 DIIS: error= 3.83D-08 at cycle   6 NSaved=   6.
 NSaved= 6 IEnMin= 6 EnMin= -574.103562606130     IErMin= 6 ErrMin= 3.83D-08
 ErrMax= 3.83D-08  0.00D+00 EMaxC= 1.00D+00 BMatC= 1.65D-13 BMatP= 2.15D-12
 IDIUse=1 WtCom= 1.00D+00 WtEn= 0.00D+00
 Coeff-Com: -0.278D-02 0.106D-01 0.201D-01 0.106D+00 0.270D+00 0.597D+00
 Coeff:     -0.278D-02 0.106D-01 0.201D-01 0.106D+00 0.270D+00 0.597D+00
 Gap=     0.228 Goal=   None    Shift=    0.000
 RMSDP=9.45D-09 MaxDP=1.02D-07 DE=-4.32D-12 OVMax= 1.13D-07

 SCF Done:  E(RB3LYP) =  -574.103562606     A.U. after   13 cycles
            NFock= 13  Conv=0.94D-08     -V/T= 2.0045
 KE= 5.715360043461D+02 PE=-1.535570159487D+03 EE= 3.024690082521D+02
 Leave Link  502 at Wed Jun 15 08:22:12 2022, MaxMem=   262144000 cpu:               2.9 elap:               2.9
 (Enter /usr/local/gaussian/2016-C.01/g16/l701.exe)
 ... and contract with generalized density number  0.
 Compute integral first derivatives.
 Leave Link  701 at Wed Jun 15 08:22:13 2022, MaxMem=   262144000 cpu:               0.1 elap:               0.1
 (Enter /usr/local/gaussian/2016-C.01/g16/l702.exe)
 L702 exits ... SP integral derivatives will be done elsewhere.
 Leave Link  702 at Wed Jun 15 08:22:13 2022, MaxMem=   262144000 cpu:               0.0 elap:               0.0
 (Enter /usr/local/gaussian/2016-C.01/g16/l703.exe)
 Integral derivatives from FoFJK, PRISM(SPDF).
 Compute integral first derivatives, UseDBF=F ICtDFT=           0.
 Calling FoFJK, ICntrl=      2127 FMM=F ISym2X=1 I1Cent= 0 IOpClX= 0 NMat=1 NMatS=1 NMatT=0.
 FoFJK:  IHMeth= 1 ICntrl=    2127 DoSepK=F KAlg= 0 I1Cent=           0 FoldK=F
 IRaf=         0 NMat=       1 IRICut=       1 DoRegI=T DoRafI=F ISym2E= 1 IDoP0=0 IntGTp=1.
 FoFCou: FMM=F IPFlag=           0 FMFlag=      100000 FMFlg1=         800
         NFxFlg=           0 DoJE=F BraDBF=F KetDBF=F FulRan=T
         wScrn=  0.000000 ICntrl=      2127 IOpCl=  0 I1Cent=           0 NGrid=           0
         NMat0=    1 NMatS0=      1 NMatT0=    0 NMatD0=    1 NMtDS0=    0 NMtDT0=    0
 Petite list used in FoFCou.
 Leave Link  703 at Wed Jun 15 08:22:14 2022, MaxMem=   262144000 cpu:               1.0 elap:               1.0
 (Enter /usr/local/gaussian/2016-C.01/g16/l716.exe)
 Dipole        =-8.12202236D-01 3.45390219D-01-1.68752599D-31
 ***** Axes restored to original set *****
 -------------------------------------------------------------------
 Center     Atomic                   Forces (Hartrees/Bohr)
 Number     Number              X              Y              Z
 -------------------------------------------------------------------
      1        6           0.019319405   -0.000000000    0.115088821
      2        8          -0.015464931    0.000000000   -0.108552397
      3       17           0.006913648    0.000000000   -0.012858791
      4        1          -0.010768122    0.000000000    0.006322367
 -------------------------------------------------------------------
 Cartesian Forces:  Max     0.115088821 RMS     0.046556896
 Leave Link  716 at Wed Jun 15 08:22:14 2022, MaxMem=   262144000 cpu:               0.0 elap:               0.0
 (Enter /usr/local/gaussian/2016-C.01/g16/l103.exe)

 GradGradGradGradGradGradGradGradGradGradGradGradGradGradGradGradGradGrad
 Berny optimization.
 Using GEDIIS/GDIIS optimizer.
 FormGI is forming the generalized inverse of G from B-inverse, IUseBI=4.
 Internal  Forces:  Max     0.107099682 RMS     0.043414011
 Search for a local minimum.
 Step number   2 out of a maximum of   20
 All quantities printed in internal units (Hartrees-Bohrs-Radians)
 RMS Force = .43414D-01 SwitMx=.10000D-02 MixMth= 1
 Mixed Optimization -- RFO/linear search
 Update second derivatives using D2CorX and points    1    2
 DE= -4.70D-02 DEPred=-3.94D-02 R= 1.19D+00
 TightC=F SS=  1.41D+00  RLast= 3.00D-01 DXNew= 5.0454D-01 9.0000D-01
 Trust test= 1.19D+00 RLast= 3.00D-01 DXMaxT set to 5.05D-01
 The second derivative matrix:
                          R1        R2        R3        A1        A2
           R1           0.32683
           R2           0.03340   0.30802
           R3           0.00717   0.00064   0.34941
           A1           0.03775  -0.00770  -0.00166   0.23934
           A2          -0.00742   0.00746   0.00158   0.00313   0.16219
           A3           0.00379  -0.00021  -0.00005  -0.00097   0.00058
           D1          -0.00000  -0.00000  -0.00000   0.00000  -0.00000
                          A3        D1
           A3           0.15994
           D1           0.00000   0.00248
 ITU=  1  0
 Use linear search instead of GDIIS.
     Eigenvalues ---    0.00248   0.15939   0.20101   0.29152   0.34587
     Eigenvalues ---    0.35897
 RFO step:  Lambda=-1.65247057D-03 EMin= 2.48058206D-03
 Quartic linear search produced a step of  0.68040.
 Iteration  1 RMS(Cart)=  0.06535776 RMS(Int)=  0.00152148
 Iteration  2 RMS(Cart)=  0.00162991 RMS(Int)=  0.00000155
 Iteration  3 RMS(Cart)=  0.00000145 RMS(Int)=  0.00000001
 Iteration  4 RMS(Cart)=  0.00000000 RMS(Int)=  0.00000000
 ITry= 1 IFail=0 DXMaxC= 1.22D-01 DCOld= 1.00D+10 DXMaxT= 5.05D-01 DXLimC= 3.00D+00 Rises=F
 ClnCor:  largest displacement from symmetrization is 1.89D-09 for atom     1.
 Variable       Old X    -DE/DX   Delta X   Delta X   Delta X     New X
                                 (Linear)    (Quad)   (Total)
    R1        2.39660  -0.10710  -0.16943  -0.02164  -0.19107   2.20553
    R2        3.31191   0.01118   0.00333   0.05256   0.05589   3.36781
    R3        2.05908   0.00244   0.00080   0.00975   0.01054   2.06963
    A1        2.02385   0.02915   0.07704  -0.01848   0.05855   2.08241
    A2        2.33921  -0.02718  -0.08349   0.04761  -0.03588   2.30334
    A3        1.92012  -0.00197   0.00645  -0.02913  -0.02267   1.89744
    D1        3.14159  -0.00000   0.00000  -0.00000   0.00000   3.14159
         Item               Value     Threshold  Converged?
 Maximum Force            0.107100     0.000450     NO 
 RMS     Force            0.043414     0.000300     NO 
 Maximum Displacement     0.121914     0.001800     NO 
 RMS     Displacement     0.064902     0.001200     NO 
 Predicted change in Energy=-1.769184D-02
 Lowest energy point so far.  Saving SCF results.
 GradGradGradGradGradGradGradGradGradGradGradGradGradGradGradGradGradGrad

 Leave Link  103 at Wed Jun 15 08:22:14 2022, MaxMem=   262144000 cpu:               0.0 elap:               0.0
 (Enter /usr/local/gaussian/2016-C.01/g16/l202.exe)
                          Input orientation:                          
 ---------------------------------------------------------------------
 Center     Atomic      Atomic             Coordinates (Angstroms)
 Number     Number       Type             X           Y           Z
 ---------------------------------------------------------------------
      1          6           0        0.045741    0.000000    0.081371
      2          8           0       -0.079647   -0.000000    1.241733
      3         17           0        1.684459   -0.000000   -0.619144
      4          1           0       -0.685116    0.000000   -0.734293
 ---------------------------------------------------------------------
                    Distance matrix (angstroms):
                    1          2          3          4
     1  C    0.000000
     2  O    1.167117   0.000000
     3  Cl   1.782167   2.564163   0.000000
     4  H    1.095198   2.066705   2.372371   0.000000
 Stoichiometry    CHClO
 Framework group  CS[SG(CHClO)]
 Deg. of freedom     5
 Full point group                 CS      NOp   2
 RotChk:  IX=0 Diff= 9.32D-02
 Largest Abelian subgroup         CS      NOp   2
 Largest concise Abelian subgroup C1      NOp   1
                         Standard orientation:                         
 ---------------------------------------------------------------------
 Center     Atomic      Atomic             Coordinates (Angstroms)
 Number     Number       Type             X           Y           Z
 ---------------------------------------------------------------------
      1          6           0        0.000000    0.823436   -0.000000
      2          8           0        1.134045    1.099303    0.000000
      3         17           0       -0.480484   -0.892738    0.000000
      4          1           0       -0.904133    1.441499   -0.000000
 ---------------------------------------------------------------------
 Rotational constants (GHZ):          72.3037607           6.3313522           5.8215797
 Leave Link  202 at Wed Jun 15 08:22:14 2022, MaxMem=   262144000 cpu:               0.0 elap:               0.0
 (Enter /usr/local/gaussian/2016-C.01/g16/l301.exe)
 Standard basis: 6-31G(d) (6D, 7F)
 Ernie: Thresh=  0.10000D-02 Tol=  0.10000D-05 Strict=F.
 There are    38 symmetry adapted cartesian basis functions of A'  symmetry.
 There are    13 symmetry adapted cartesian basis functions of A"  symmetry.
 There are    38 symmetry adapted basis functions of A'  symmetry.
 There are    13 symmetry adapted basis functions of A"  symmetry.
    51 basis functions,   112 primitive gaussians,    51 cartesian basis functions
    16 alpha electrons       16 beta electrons
       nuclear repulsion energy        88.8566033461 Hartrees.
 IExCor=  402 DFT=T Ex+Corr=B3LYP ExCW=0 ScaHFX=  0.200000
 ScaDFX=  0.800000  0.720000  1.000000  0.810000 ScalE2=  1.000000  1.000000
 IRadAn=      5 IRanWt=     -1 IRanGd=            0 ICorTp=0 IEmpDi=  4
 NAtoms=    4 NActive=    4 NUniq=    4 SFac= 1.00D+00 NAtFMM=   60 NAOKFM=F Big=F
 Integral buffers will be    131072 words long.
 Raffenetti 2 integral format.
 Two-electron integral symmetry is turned on.
 Leave Link  301 at Wed Jun 15 08:22:14 2022, MaxMem=   262144000 cpu:               0.1 elap:               0.1
 (Enter /usr/local/gaussian/2016-C.01/g16/l302.exe)
 NPDir=0 NMtPBC=     1 NCelOv=     1 NCel=       1 NClECP=     1 NCelD=      1
         NCelK=      1 NCelE2=     1 NClLst=     1 CellRange=     0.0.
 One-electron integrals computed using PRISM.
 One-electron integral symmetry used in STVInt
 NBasis=    51 RedAO= T EigKep=  6.42D-03  NBF=    38    13
 NBsUse=    51 1.00D-06 EigRej= -1.00D+00 NBFU=    38    13
 Precomputing XC quadrature grid using
 IXCGrd= 4 IRadAn=           5 IRanWt=          -1 IRanGd=           0 AccXCQ= 0.00D+00.
 Generated NRdTot=       0 NPtTot=           0 NUsed=           0 NTot=          32
 NSgBfM=    51    51    51    51    51 MxSgAt=     4 MxSgA2=     4.
 Leave Link  302 at Wed Jun 15 08:22:14 2022, MaxMem=   262144000 cpu:               0.2 elap:               0.2
 (Enter /usr/local/gaussian/2016-C.01/g16/l303.exe)
 DipDrv:  MaxL=1.
 Leave Link  303 at Wed Jun 15 08:22:14 2022, MaxMem=   262144000 cpu:               0.0 elap:               0.0
 (Enter /usr/local/gaussian/2016-C.01/g16/l401.exe)
 Initial guess from the checkpoint file:  "/scratch/pbs.4261629.ossachilles/Gau-72146.chk"
 B after Tr=    -0.000000    0.000000    0.000000
         Rot=    0.999271   -0.000000   -0.000000   -0.038171 Ang=  -4.38 deg.
 Guess basis will be translated and rotated to current coordinates.
 JPrj=2 DoOrth=T DoCkMO=T.
 Initial guess orbital symmetries:
       Occupied  (A') (A') (A') (A') (A') (A") (A') (A') (A') (A')
                 (A') (A') (A") (A') (A") (A')
       Virtual   (A") (A') (A') (A') (A') (A') (A") (A') (A") (A')
                 (A') (A') (A') (A") (A') (A") (A') (A") (A') (A')
                 (A') (A') (A") (A") (A') (A') (A") (A') (A') (A")
                 (A') (A') (A') (A') (A')
 The electronic state of the initial guess is 1-A'.
 Generating alternative initial guess.
 ExpMin= 1.43D-01 ExpMax= 2.52D+04 ExpMxC= 3.78D+03 IAcc=3 IRadAn=         5 AccDes= 0.00D+00
 Harris functional with IExCor=  402 and IRadAn=       5 diagonalized for initial guess.
 HarFok:  IExCor=  402 AccDes= 0.00D+00 IRadAn=         5 IDoV= 1 UseB2=F ITyADJ=14
 ICtDFT=  3500011 ScaDFX=  1.000000  1.000000  1.000000  1.000000
 FoFCou: FMM=F IPFlag=           0 FMFlag=      100000 FMFlg1=           0
         NFxFlg=           0 DoJE=T BraDBF=F KetDBF=T FulRan=T
         wScrn=  0.000000 ICntrl=       500 IOpCl=  0 I1Cent=   200000004 NGrid=           0
         NMat0=    1 NMatS0=      1 NMatT0=    0 NMatD0=    1 NMtDS0=    0 NMtDT0=    0
 Petite list used in FoFCou.
 Harris En= -574.052734435221    
 Leave Link  401 at Wed Jun 15 08:22:14 2022, MaxMem=   262144000 cpu:               0.5 elap:               0.5
 (Enter /usr/local/gaussian/2016-C.01/g16/l502.exe)
 Keep R1 ints in memory in symmetry-blocked form, NReq=1756466.
 FoFCou: FMM=F IPFlag=           0 FMFlag=           0 FMFlg1=           0
         NFxFlg=           0 DoJE=F BraDBF=F KetDBF=F FulRan=T
         wScrn=  0.000000 ICntrl=       600 IOpCl=  0 I1Cent=           0 NGrid=           0
         NMat0=    1 NMatS0=   1326 NMatT0=    0 NMatD0=    1 NMtDS0=    0 NMtDT0=    0
 Petite list used in FoFCou.
 Closed shell SCF:
 Using DIIS extrapolation, IDIIS=  1040.
 NGot=   262144000 LenX=   261665517 LenY=   261662475
 Requested convergence on RMS density matrix=1.00D-08 within 128 cycles.
 Requested convergence on MAX density matrix=1.00D-06.
 Requested convergence on             energy=1.00D-06.
 No special actions if energy rises.
 Integral accuracy reduced to 1.0D-05 until final iterations.

 Cycle   1  Pass 0  IDiag  1:
 E= -574.106385082736    
 DIIS: error= 8.79D-03 at cycle   1 NSaved=   1.
 NSaved= 1 IEnMin= 1 EnMin= -574.106385082736     IErMin= 1 ErrMin= 8.79D-03
 ErrMax= 8.79D-03  0.00D+00 EMaxC= 1.00D-01 BMatC= 5.94D-03 BMatP= 5.94D-03
 IDIUse=3 WtCom= 9.12D-01 WtEn= 8.79D-02
 Coeff-Com:  0.100D+01
 Coeff-En:   0.100D+01
 Coeff:      0.100D+01
 Gap=     0.274 Goal=   None    Shift=    0.000
 GapD=    0.274 DampG=1.000 DampE=1.000 DampFc=1.0000 IDamp=-1.
 RMSDP=2.48D-03 MaxDP=2.71D-02              OVMax= 2.99D-02

 Cycle   2  Pass 0  IDiag  1:
 E= -574.113579891432     Delta-E=       -0.007194808696 Rises=F Damp=F
 DIIS: error= 5.23D-03 at cycle   2 NSaved=   2.
 NSaved= 2 IEnMin= 2 EnMin= -574.113579891432     IErMin= 2 ErrMin= 5.23D-03
 ErrMax= 5.23D-03  0.00D+00 EMaxC= 1.00D-01 BMatC= 1.70D-03 BMatP= 5.94D-03
 IDIUse=3 WtCom= 9.48D-01 WtEn= 5.23D-02
 Coeff-Com:  0.289D+00 0.711D+00
 Coeff-En:   0.000D+00 0.100D+01
 Coeff:      0.274D+00 0.726D+00
 Gap=     0.258 Goal=   None    Shift=    0.000
 RMSDP=1.13D-03 MaxDP=1.98D-02 DE=-7.19D-03 OVMax= 2.10D-02

 Cycle   3  Pass 0  IDiag  1:
 E= -574.113061430874     Delta-E=        0.000518460558 Rises=F Damp=F
 DIIS: error= 7.01D-03 at cycle   3 NSaved=   3.
 NSaved= 3 IEnMin= 2 EnMin= -574.113579891432     IErMin= 2 ErrMin= 5.23D-03
 ErrMax= 7.01D-03  0.00D+00 EMaxC= 1.00D-01 BMatC= 2.23D-03 BMatP= 1.70D-03
 IDIUse=3 WtCom= 1.07D-01 WtEn= 8.93D-01
 Coeff-Com:  0.352D-01 0.528D+00 0.436D+00
 Coeff-En:   0.000D+00 0.571D+00 0.429D+00
 Coeff:      0.376D-02 0.566D+00 0.430D+00
 Gap=     0.261 Goal=   None    Shift=    0.000
 RMSDP=7.16D-04 MaxDP=1.16D-02 DE= 5.18D-04 OVMax= 1.53D-02

 Cycle   4  Pass 0  IDiag  1:
 E= -574.114759425181     Delta-E=       -0.001697994306 Rises=F Damp=F
 DIIS: error= 7.57D-04 at cycle   4 NSaved=   4.
 NSaved= 4 IEnMin= 4 EnMin= -574.114759425181     IErMin= 4 ErrMin= 7.57D-04
 ErrMax= 7.57D-04  0.00D+00 EMaxC= 1.00D-01 BMatC= 3.37D-05 BMatP= 1.70D-03
 IDIUse=3 WtCom= 9.92D-01 WtEn= 7.57D-03
 Coeff-Com: -0.118D-01 0.183D+00 0.176D+00 0.653D+00
 Coeff-En:   0.000D+00 0.000D+00 0.000D+00 0.100D+01
 Coeff:     -0.117D-01 0.181D+00 0.175D+00 0.656D+00
 Gap=     0.260 Goal=   None    Shift=    0.000
 RMSDP=1.21D-04 MaxDP=1.42D-03 DE=-1.70D-03 OVMax= 1.86D-03

 Cycle   5  Pass 0  IDiag  1:
 E= -574.114789149538     Delta-E=       -0.000029724358 Rises=F Damp=F
 DIIS: error= 1.27D-04 at cycle   5 NSaved=   5.
 NSaved= 5 IEnMin= 5 EnMin= -574.114789149538     IErMin= 5 ErrMin= 1.27D-04
 ErrMax= 1.27D-04  0.00D+00 EMaxC= 1.00D-01 BMatC= 2.22D-06 BMatP= 3.37D-05
 IDIUse=3 WtCom= 9.99D-01 WtEn= 1.27D-03
 Coeff-Com: -0.456D-02 0.540D-01 0.599D-01 0.283D+00 0.608D+00
 Coeff-En:   0.000D+00 0.000D+00 0.000D+00 0.000D+00 0.100D+01
 Coeff:     -0.455D-02 0.539D-01 0.598D-01 0.283D+00 0.608D+00
 Gap=     0.260 Goal=   None    Shift=    0.000
 RMSDP=5.04D-05 MaxDP=5.76D-04 DE=-2.97D-05 OVMax= 6.86D-04

 Cycle   6  Pass 0  IDiag  1:
 E= -574.114791362444     Delta-E=       -0.000002212906 Rises=F Damp=F
 DIIS: error= 5.23D-05 at cycle   6 NSaved=   6.
 NSaved= 6 IEnMin= 6 EnMin= -574.114791362444     IErMin= 6 ErrMin= 5.23D-05
 ErrMax= 5.23D-05  0.00D+00 EMaxC= 1.00D-01 BMatC= 2.95D-07 BMatP= 2.22D-06
 IDIUse=1 WtCom= 1.00D+00 WtEn= 0.00D+00
 Coeff-Com: -0.144D-02 0.761D-02 0.112D-01 0.734D-01 0.310D+00 0.600D+00
 Coeff:     -0.144D-02 0.761D-02 0.112D-01 0.734D-01 0.310D+00 0.600D+00
 Gap=     0.260 Goal=   None    Shift=    0.000
 RMSDP=1.73D-05 MaxDP=2.50D-04 DE=-2.21D-06 OVMax= 2.43D-04

 Cycle   7  Pass 0  IDiag  1:
 E= -574.114791702247     Delta-E=       -0.000000339803 Rises=F Damp=F
 DIIS: error= 8.64D-06 at cycle   7 NSaved=   7.
 NSaved= 7 IEnMin= 7 EnMin= -574.114791702247     IErMin= 7 ErrMin= 8.64D-06
 ErrMax= 8.64D-06  0.00D+00 EMaxC= 1.00D-01 BMatC= 7.42D-09 BMatP= 2.95D-07
 IDIUse=1 WtCom= 1.00D+00 WtEn= 0.00D+00
 Coeff-Com: -0.124D-03-0.102D-02-0.557D-03 0.611D-02 0.631D-01 0.190D+00
 Coeff-Com:  0.743D+00
 Coeff:     -0.124D-03-0.102D-02-0.557D-03 0.611D-02 0.631D-01 0.190D+00
 Coeff:      0.743D+00
 Gap=     0.260 Goal=   None    Shift=    0.000
 RMSDP=2.79D-06 MaxDP=5.32D-05 DE=-3.40D-07 OVMax= 3.90D-05

 Initial convergence to 1.0D-05 achieved.  Increase integral accuracy.
 Cycle   8  Pass 1  IDiag  1:
 E= -574.114790285208     Delta-E=        0.000001417039 Rises=F Damp=F
 DIIS: error= 6.61D-06 at cycle   1 NSaved=   1.
 NSaved= 1 IEnMin= 1 EnMin= -574.114790285208     IErMin= 1 ErrMin= 6.61D-06
 ErrMax= 6.61D-06  0.00D+00 EMaxC= 1.00D-01 BMatC= 1.66D-09 BMatP= 1.66D-09
 IDIUse=1 WtCom= 1.00D+00 WtEn= 0.00D+00
 Coeff-Com:  0.100D+01
 Coeff:      0.100D+01
 Gap=     0.260 Goal=   None    Shift=    0.000
 RMSDP=2.79D-06 MaxDP=5.32D-05 DE= 1.42D-06 OVMax= 2.11D-05

 Cycle   9  Pass 1  IDiag  1:
 E= -574.114790285749     Delta-E=       -0.000000000541 Rises=F Damp=F
 DIIS: error= 3.21D-06 at cycle   2 NSaved=   2.
 NSaved= 2 IEnMin= 2 EnMin= -574.114790285749     IErMin= 2 ErrMin= 3.21D-06
 ErrMax= 3.21D-06  0.00D+00 EMaxC= 1.00D-01 BMatC= 9.10D-10 BMatP= 1.66D-09
 IDIUse=1 WtCom= 1.00D+00 WtEn= 0.00D+00
 Coeff-Com:  0.398D+00 0.602D+00
 Coeff:      0.398D+00 0.602D+00
 Gap=     0.260 Goal=   None    Shift=    0.000
 RMSDP=1.02D-06 MaxDP=1.37D-05 DE=-5.41D-10 OVMax= 1.85D-05

 Cycle  10  Pass 1  IDiag  1:
 E= -574.114790286060     Delta-E=       -0.000000000311 Rises=F Damp=F
 DIIS: error= 3.33D-06 at cycle   3 NSaved=   3.
 NSaved= 3 IEnMin= 3 EnMin= -574.114790286060     IErMin= 2 ErrMin= 3.21D-06
 ErrMax= 3.33D-06  0.00D+00 EMaxC= 1.00D-01 BMatC= 6.76D-10 BMatP= 9.10D-10
 IDIUse=1 WtCom= 1.00D+00 WtEn= 0.00D+00
 Coeff-Com:  0.679D-01 0.450D+00 0.482D+00
 Coeff:      0.679D-01 0.450D+00 0.482D+00
 Gap=     0.260 Goal=   None    Shift=    0.000
 RMSDP=4.16D-07 MaxDP=6.95D-06 DE=-3.11D-10 OVMax= 8.33D-06

 Cycle  11  Pass 1  IDiag  1:
 E= -574.114790286591     Delta-E=       -0.000000000531 Rises=F Damp=F
 DIIS: error= 7.63D-07 at cycle   4 NSaved=   4.
 NSaved= 4 IEnMin= 4 EnMin= -574.114790286591     IErMin= 4 ErrMin= 7.63D-07
 ErrMax= 7.63D-07  0.00D+00 EMaxC= 1.00D-01 BMatC= 3.19D-11 BMatP= 6.76D-10
 IDIUse=1 WtCom= 1.00D+00 WtEn= 0.00D+00
 Coeff-Com: -0.626D-02 0.203D+00 0.269D+00 0.535D+00
 Coeff:     -0.626D-02 0.203D+00 0.269D+00 0.535D+00
 Gap=     0.260 Goal=   None    Shift=    0.000
 RMSDP=1.22D-07 MaxDP=1.99D-06 DE=-5.31D-10 OVMax= 2.02D-06

 Cycle  12  Pass 1  IDiag  1:
 E= -574.114790286616     Delta-E=       -0.000000000025 Rises=F Damp=F
 DIIS: error= 1.87D-07 at cycle   5 NSaved=   5.
 NSaved= 5 IEnMin= 5 EnMin= -574.114790286616     IErMin= 5 ErrMin= 1.87D-07
 ErrMax= 1.87D-07  0.00D+00 EMaxC= 1.00D-01 BMatC= 1.65D-12 BMatP= 3.19D-11
 IDIUse=1 WtCom= 1.00D+00 WtEn= 0.00D+00
 Coeff-Com: -0.606D-02 0.857D-01 0.118D+00 0.288D+00 0.514D+00
 Coeff:     -0.606D-02 0.857D-01 0.118D+00 0.288D+00 0.514D+00
 Gap=     0.260 Goal=   None    Shift=    0.000
 RMSDP=3.45D-08 MaxDP=3.25D-07 DE=-2.54D-11 OVMax= 3.49D-07

 Cycle  13  Pass 1  IDiag  1:
 E= -574.114790286615     Delta-E=        0.000000000000 Rises=F Damp=F
 DIIS: error= 1.20D-08 at cycle   6 NSaved=   6.
 NSaved= 6 IEnMin= 5 EnMin= -574.114790286616     IErMin= 6 ErrMin= 1.20D-08
 ErrMax= 1.20D-08  0.00D+00 EMaxC= 1.00D-01 BMatC= 1.52D-14 BMatP= 1.65D-12
 IDIUse=1 WtCom= 1.00D+00 WtEn= 0.00D+00
 Coeff-Com: -0.885D-03 0.741D-02 0.108D-01 0.347D-01 0.115D+00 0.833D+00
 Coeff:     -0.885D-03 0.741D-02 0.108D-01 0.347D-01 0.115D+00 0.833D+00
 Gap=     0.260 Goal=   None    Shift=    0.000
 RMSDP=4.33D-09 MaxDP=6.04D-08 DE= 4.55D-13 OVMax= 5.15D-08

 SCF Done:  E(RB3LYP) =  -574.114790287     A.U. after   13 cycles
            NFock= 13  Conv=0.43D-08     -V/T= 2.0039
 KE= 5.718591187155D+02 PE=-1.538593842005D+03 EE= 3.037633296572D+02
 Leave Link  502 at Wed Jun 15 08:22:17 2022, MaxMem=   262144000 cpu:               2.9 elap:               2.9
 (Enter /usr/local/gaussian/2016-C.01/g16/l701.exe)
 ... and contract with generalized density number  0.
 Compute integral first derivatives.
 Leave Link  701 at Wed Jun 15 08:22:18 2022, MaxMem=   262144000 cpu:               0.1 elap:               0.1
 (Enter /usr/local/gaussian/2016-C.01/g16/l702.exe)
 L702 exits ... SP integral derivatives will be done elsewhere.
 Leave Link  702 at Wed Jun 15 08:22:18 2022, MaxMem=   262144000 cpu:               0.0 elap:               0.0
 (Enter /usr/local/gaussian/2016-C.01/g16/l703.exe)
 Integral derivatives from FoFJK, PRISM(SPDF).
 Compute integral first derivatives, UseDBF=F ICtDFT=           0.
 Calling FoFJK, ICntrl=      2127 FMM=F ISym2X=1 I1Cent= 0 IOpClX= 0 NMat=1 NMatS=1 NMatT=0.
 FoFJK:  IHMeth= 1 ICntrl=    2127 DoSepK=F KAlg= 0 I1Cent=           0 FoldK=F
 IRaf=         0 NMat=       1 IRICut=       1 DoRegI=T DoRafI=F ISym2E= 1 IDoP0=0 IntGTp=1.
 FoFCou: FMM=F IPFlag=           0 FMFlag=      100000 FMFlg1=         800
         NFxFlg=           0 DoJE=F BraDBF=F KetDBF=F FulRan=T
         wScrn=  0.000000 ICntrl=      2127 IOpCl=  0 I1Cent=           0 NGrid=           0
         NMat0=    1 NMatS0=      1 NMatT0=    0 NMatD0=    1 NMtDS0=    0 NMtDT0=    0
 Petite list used in FoFCou.
 Leave Link  703 at Wed Jun 15 08:22:19 2022, MaxMem=   262144000 cpu:               1.0 elap:               1.0
 (Enter /usr/local/gaussian/2016-C.01/g16/l716.exe)
 Dipole        =-6.29458081D-01 4.45807574D-01-2.59478829D-31
 ***** Axes restored to original set *****
 -------------------------------------------------------------------
 Center     Atomic                   Forces (Hartrees/Bohr)
 Number     Number              X              Y              Z
 -------------------------------------------------------------------
      1        6           0.016894099    0.000000000   -0.028324032
      2        8          -0.019836634   -0.000000000    0.036128942
      3       17           0.009172412    0.000000000   -0.010776594
      4        1          -0.006229877    0.000000000    0.002971684
 -------------------------------------------------------------------
 Cartesian Forces:  Max     0.036128942 RMS     0.015901688
 Leave Link  716 at Wed Jun 15 08:22:19 2022, MaxMem=   262144000 cpu:               0.0 elap:               0.0
 (Enter /usr/local/gaussian/2016-C.01/g16/l103.exe)

 GradGradGradGradGradGradGradGradGradGradGradGradGradGradGradGradGradGrad
 Berny optimization.
 Using GEDIIS/GDIIS optimizer.
 FormGI is forming the generalized inverse of G from B-inverse, IUseBI=4.
 Internal  Forces:  Max     0.038050957 RMS     0.017856159
 Search for a local minimum.
 Step number   3 out of a maximum of   20
 All quantities printed in internal units (Hartrees-Bohrs-Radians)
 RMS Force = .17856D-01 SwitMx=.10000D-02 MixMth= 1
 Mixed Optimization -- RFO/linear search
 Update second derivatives using D2CorX and points    1    2    3
 DE= -1.12D-02 DEPred=-1.77D-02 R= 6.35D-01
 TightC=F SS=  1.41D+00  RLast= 2.12D-01 DXNew= 8.4853D-01 6.3620D-01
 Trust test= 6.35D-01 RLast= 2.12D-01 DXMaxT set to 6.36D-01
 The second derivative matrix:
                          R1        R2        R3        A1        A2
           R1           0.78801
           R2           0.09112   0.30757
           R3           0.01549   0.00031   0.34932
           A1           0.01386  -0.01362  -0.00258   0.23874
           A2           0.03129   0.01312   0.00240   0.00206   0.16481
           A3          -0.02067   0.00041   0.00016   0.00188  -0.00202
           D1           0.00000  -0.00000  -0.00000  -0.00000   0.00000
                          A3        D1
           A3           0.15942
           D1           0.00000   0.00248
 ITU=  1  1  0
 Use linear search instead of GDIIS.
     Eigenvalues ---    0.00248   0.16184   0.20614   0.29453   0.34896
     Eigenvalues ---    0.80747
 RFO step:  Lambda=-5.01101984D-03 EMin= 2.48058206D-03
 Quartic linear search produced a step of -0.12643.
 Iteration  1 RMS(Cart)=  0.06242521 RMS(Int)=  0.00224712
 Iteration  2 RMS(Cart)=  0.00202838 RMS(Int)=  0.00000156
 Iteration  3 RMS(Cart)=  0.00000172 RMS(Int)=  0.00000000
 Iteration  4 RMS(Cart)=  0.00000000 RMS(Int)=  0.00000000
 ITry= 1 IFail=0 DXMaxC= 1.10D-01 DCOld= 1.00D+10 DXMaxT= 6.36D-01 DXLimC= 3.00D+00 Rises=F
 ClnCor:  largest displacement from symmetrization is 6.95D-10 for atom     1.
 Variable       Old X    -DE/DX   Delta X   Delta X   Delta X     New X
                                 (Linear)    (Quad)   (Total)
    R1        2.20553   0.03805   0.02416   0.01484   0.03899   2.24453
    R2        3.36781   0.01267  -0.00707   0.04902   0.04195   3.40976
    R3        2.06963   0.00194  -0.00133   0.00719   0.00586   2.07548
    A1        2.08241   0.01872  -0.00740   0.10283   0.09543   2.17784
    A2        2.30334  -0.01621   0.00454  -0.10067  -0.09613   2.20721
    A3        1.89744  -0.00251   0.00287  -0.00217   0.00070   1.89814
    D1        3.14159   0.00000   0.00000  -0.00000   0.00000   3.14159
         Item               Value     Threshold  Converged?
 Maximum Force            0.038051     0.000450     NO 
 RMS     Force            0.017856     0.000300     NO 
 Maximum Displacement     0.110449     0.001800     NO 
 RMS     Displacement     0.062524     0.001200     NO 
 Predicted change in Energy=-2.688303D-03
 Lowest energy point so far.  Saving SCF results.
 GradGradGradGradGradGradGradGradGradGradGradGradGradGradGradGradGradGrad

 Leave Link  103 at Wed Jun 15 08:22:19 2022, MaxMem=   262144000 cpu:               0.0 elap:               0.0
 (Enter /usr/local/gaussian/2016-C.01/g16/l202.exe)
                          Input orientation:                          
 ---------------------------------------------------------------------
 Center     Atomic      Atomic             Coordinates (Angstroms)
 Number     Number       Type             X           Y           Z
 ---------------------------------------------------------------------
      1          6           0        0.072172    0.000000    0.087533
      2          8           0       -0.138095   -0.000000    1.256525
      3         17           0        1.712974    0.000000   -0.663135
      4          1           0       -0.681614    0.000000   -0.711256
 ---------------------------------------------------------------------
                    Distance matrix (angstroms):
                    1          2          3          4
     1  C    0.000000
     2  O    1.187752   0.000000
     3  Cl   1.804365   2.666749   0.000000
     4  H    1.098298   2.041464   2.395071   0.000000
 Stoichiometry    CHClO
 Framework group  CS[SG(CHClO)]
 Deg. of freedom     5
 Full point group                 CS      NOp   2
 RotChk:  IX=0 Diff= 4.64D-02
 Largest Abelian subgroup         CS      NOp   2
 Largest concise Abelian subgroup C1      NOp   1
                         Standard orientation:                         
 ---------------------------------------------------------------------
 Center     Atomic      Atomic             Coordinates (Angstroms)
 Number     Number       Type             X           Y           Z
 ---------------------------------------------------------------------
      1          6           0        0.000000    0.806349    0.000000
      2          8           0        1.119049    1.204450    0.000000
      3         17           0       -0.473021   -0.934910   -0.000000
      4          1           0       -0.911029    1.419770   -0.000000
 ---------------------------------------------------------------------
 Rotational constants (GHZ):          79.5882497           5.8863538           5.4809801
 Leave Link  202 at Wed Jun 15 08:22:19 2022, MaxMem=   262144000 cpu:               0.0 elap:               0.0
 (Enter /usr/local/gaussian/2016-C.01/g16/l301.exe)
 Standard basis: 6-31G(d) (6D, 7F)
 Ernie: Thresh=  0.10000D-02 Tol=  0.10000D-05 Strict=F.
 There are    38 symmetry adapted cartesian basis functions of A'  symmetry.
 There are    13 symmetry adapted cartesian basis functions of A"  symmetry.
 There are    38 symmetry adapted basis functions of A'  symmetry.
 There are    13 symmetry adapted basis functions of A"  symmetry.
    51 basis functions,   112 primitive gaussians,    51 cartesian basis functions
    16 alpha electrons       16 beta electrons
       nuclear repulsion energy        87.0074056705 Hartrees.
 IExCor=  402 DFT=T Ex+Corr=B3LYP ExCW=0 ScaHFX=  0.200000
 ScaDFX=  0.800000  0.720000  1.000000  0.810000 ScalE2=  1.000000  1.000000
 IRadAn=      5 IRanWt=     -1 IRanGd=            0 ICorTp=0 IEmpDi=  4
 NAtoms=    4 NActive=    4 NUniq=    4 SFac= 1.00D+00 NAtFMM=   60 NAOKFM=F Big=F
 Integral buffers will be    131072 words long.
 Raffenetti 2 integral format.
 Two-electron integral symmetry is turned on.
 Leave Link  301 at Wed Jun 15 08:22:19 2022, MaxMem=   262144000 cpu:               0.1 elap:               0.1
 (Enter /usr/local/gaussian/2016-C.01/g16/l302.exe)
 NPDir=0 NMtPBC=     1 NCelOv=     1 NCel=       1 NClECP=     1 NCelD=      1
         NCelK=      1 NCelE2=     1 NClLst=     1 CellRange=     0.0.
 One-electron integrals computed using PRISM.
 One-electron integral symmetry used in STVInt
 NBasis=    51 RedAO= T EigKep=  7.11D-03  NBF=    38    13
 NBsUse=    51 1.00D-06 EigRej= -1.00D+00 NBFU=    38    13
 Precomputing XC quadrature grid using
 IXCGrd= 4 IRadAn=           5 IRanWt=          -1 IRanGd=           0 AccXCQ= 0.00D+00.
 Generated NRdTot=       0 NPtTot=           0 NUsed=           0 NTot=          32
 NSgBfM=    51    51    51    51    51 MxSgAt=     4 MxSgA2=     4.
 Leave Link  302 at Wed Jun 15 08:22:19 2022, MaxMem=   262144000 cpu:               0.2 elap:               0.2
 (Enter /usr/local/gaussian/2016-C.01/g16/l303.exe)
 DipDrv:  MaxL=1.
 Leave Link  303 at Wed Jun 15 08:22:19 2022, MaxMem=   262144000 cpu:               0.0 elap:               0.0
 (Enter /usr/local/gaussian/2016-C.01/g16/l401.exe)
 Initial guess from the checkpoint file:  "/scratch/pbs.4261629.ossachilles/Gau-72146.chk"
 B after Tr=     0.000000   -0.000000   -0.000000
         Rot=    0.999852   -0.000000   -0.000000   -0.017222 Ang=  -1.97 deg.
 Guess basis will be translated and rotated to current coordinates.
 JPrj=2 DoOrth=T DoCkMO=T.
 Initial guess orbital symmetries:
       Occupied  (A') (A') (A') (A') (A') (A") (A') (A') (A') (A')
                 (A') (A') (A") (A") (A') (A')
       Virtual   (A") (A') (A') (A') (A') (A') (A") (A') (A") (A')
                 (A') (A') (A') (A") (A') (A") (A') (A") (A') (A')
                 (A') (A') (A") (A") (A') (A') (A") (A') (A') (A")
                 (A') (A') (A') (A') (A')
 The electronic state of the initial guess is 1-A'.
 Generating alternative initial guess.
 ExpMin= 1.43D-01 ExpMax= 2.52D+04 ExpMxC= 3.78D+03 IAcc=3 IRadAn=         5 AccDes= 0.00D+00
 Harris functional with IExCor=  402 and IRadAn=       5 diagonalized for initial guess.
 HarFok:  IExCor=  402 AccDes= 0.00D+00 IRadAn=         5 IDoV= 1 UseB2=F ITyADJ=14
 ICtDFT=  3500011 ScaDFX=  1.000000  1.000000  1.000000  1.000000
 FoFCou: FMM=F IPFlag=           0 FMFlag=      100000 FMFlg1=           0
         NFxFlg=           0 DoJE=T BraDBF=F KetDBF=T FulRan=T
         wScrn=  0.000000 ICntrl=       500 IOpCl=  0 I1Cent=   200000004 NGrid=           0
         NMat0=    1 NMatS0=      1 NMatT0=    0 NMatD0=    1 NMtDS0=    0 NMtDT0=    0
 Petite list used in FoFCou.
 Harris En= -574.056035763840    
 Leave Link  401 at Wed Jun 15 08:22:19 2022, MaxMem=   262144000 cpu:               0.5 elap:               0.5
 (Enter /usr/local/gaussian/2016-C.01/g16/l502.exe)
 Keep R1 ints in memory in symmetry-blocked form, NReq=1756466.
 FoFCou: FMM=F IPFlag=           0 FMFlag=           0 FMFlg1=           0
         NFxFlg=           0 DoJE=F BraDBF=F KetDBF=F FulRan=T
         wScrn=  0.000000 ICntrl=       600 IOpCl=  0 I1Cent=           0 NGrid=           0
         NMat0=    1 NMatS0=   1326 NMatT0=    0 NMatD0=    1 NMtDS0=    0 NMtDT0=    0
 Petite list used in FoFCou.
 Closed shell SCF:
 Using DIIS extrapolation, IDIIS=  1040.
 NGot=   262144000 LenX=   261665517 LenY=   261662475
 Requested convergence on RMS density matrix=1.00D-08 within 128 cycles.
 Requested convergence on MAX density matrix=1.00D-06.
 Requested convergence on             energy=1.00D-06.
 No special actions if energy rises.
 Integral accuracy reduced to 1.0D-05 until final iterations.

 Cycle   1  Pass 0  IDiag  1:
[...]
 Harmonic frequencies (cm**-1), IR intensities (KM/Mole), Raman scattering
 activities (A**4/AMU), depolarization ratios for plane and unpolarized
 incident light, reduced masses (AMU), force constants (mDyne/A),
 and normal coordinates:
                      1                      2                      3
                     A'                     A'                     A"
 Frequencies --    447.7845               728.3846               944.4313
 Red. masses --     17.1915                 6.3373                 1.5902
 Frc consts  --      2.0310                 1.9810                 0.8357
 IR Inten    --     13.8075               210.1062                 1.5888
  Atom  AN      X      Y      Z        X      Y      Z        X      Y      Z
     1   6     0.44   0.10  -0.00    -0.14   0.59  -0.00     0.00  -0.00  -0.22
     2   8     0.24   0.67   0.00     0.06  -0.16   0.00    -0.00  -0.00   0.06
     3  17    -0.27  -0.34   0.00     0.02  -0.15   0.00     0.00   0.00   0.02
     4   1     0.24  -0.20   0.00    -0.03   0.76   0.00    -0.00  -0.00   0.97
                      4                      5                      6
                     A'                     A'                     A'
 Frequencies --   1356.0835              1878.7788              3091.3593
 Red. masses --      1.1129                 9.7684                 1.0995
 Frc consts  --      1.2058                20.3155                 6.1908
 IR Inten    --     36.2721               353.0703                29.7467
  Atom  AN      X      Y      Z        X      Y      Z        X      Y      Z
     1   6    -0.00  -0.08  -0.00     0.62   0.21   0.00    -0.08   0.04  -0.00
     2   8    -0.04   0.02   0.00    -0.49  -0.16  -0.00     0.01   0.00   0.00
     3  17     0.00  -0.01   0.00    -0.00   0.01  -0.00     0.00   0.00   0.00
     4   1     0.60   0.80   0.00     0.40  -0.38  -0.00     0.82  -0.56   0.00

 -------------------
 - Thermochemistry -
 -------------------
 Temperature   298.150 Kelvin.  Pressure   1.00000 Atm.
 Atom     1 has atomic number  6 and mass  12.00000
 Atom     2 has atomic number  8 and mass  15.99491
 Atom     3 has atomic number 17 and mass  34.96885
 Atom     4 has atomic number  1 and mass   1.00783
 Molecular mass:    63.97159 amu.
 Principal axes and moments of inertia in atomic units:
                           1         2         3
     Eigenvalues --    23.18808 302.09081 325.27889
           X            0.53706   0.84355   0.00000
           Y            0.84355  -0.53706   0.00000
           Z           -0.00000  -0.00000   1.00000
 This molecule is an asymmetric top.
 Rotational symmetry number  1.
 Rotational temperatures (Kelvin)      3.73528     0.28671     0.26628
 Rotational constants (GHZ):          77.83056     5.97417     5.54829
 Zero-point vibrational energy      50523.2 (Joules/Mol)
                                   12.07534 (Kcal/Mol)
 Warning -- explicit consideration of   1 degrees of freedom as
           vibrations may cause significant error
 Vibrational temperatures:    644.26  1047.98  1358.83  1951.10  2703.14
          (Kelvin)           4447.78
 
 Zero-point correction=                           0.019243 (Hartree/Particle)
 Thermal correction to Energy=                    0.022499
 Thermal correction to Enthalpy=                  0.023443
 Thermal correction to Gibbs Free Energy=        -0.005993
 Sum of electronic and zero-point Energies=           -574.097755
 Sum of electronic and thermal Energies=              -574.094499
 Sum of electronic and thermal Enthalpies=            -574.093555
 Sum of electronic and thermal Free Energies=         -574.122991
 
                     E (Thermal)             CV                S
                      KCal/Mol        Cal/Mol-Kelvin    Cal/Mol-Kelvin
 Total                   14.118              8.687             61.952
 Electronic               0.000              0.000              0.000
 Translational            0.889              2.981             38.386
 Rotational               0.889              2.981             22.348
 Vibrational             12.341              2.726              1.218
 Vibration     1          0.807              1.366              0.803
                       Q            Log10(Q)             Ln(Q)
 Total Bot       0.570640D+03          2.756362          6.346758
 Total V=0       0.405179D+12         11.607647         26.727595
 Vib (Bot)       0.166055D-08         -8.779747        -20.216115
 Vib (Bot)    1  0.383655D+00         -0.416059         -0.958010
 Vib (V=0)       0.117907D+01          0.071538          0.164722
 Vib (V=0)    1  0.113023D+01          0.053167          0.122422
 Electronic      0.100000D+01          0.000000          0.000000
 Translational   0.201110D+08          7.303435         16.816780
 Rotational      0.170873D+05          4.232675          9.746094
 
                                                             rembiszewski
                                                             IR Spectrum
 
     3                                                 1                     1                                                       
     0                                                 8                     3                9        7          4                  
     9                                                 7                     5                4        2          4                  
     1                                                 9                     6                4        8          8                  
 
     X                                                 X                     X                X        X          X                  
     X                                                 X                     X                         X                             
                                                       X                                               X                             
                                                       X                                               X                             
                                                       X                                               X                             
                                                       X                                               X                             
                                                       X                                               X                             
                                                       X                                               X                             
                                                       X                                               X                             
                                                       X                                               X                             
                                                       X                                               X                             
                                                       X                                               X                             
                                                       X                                                                             
                                                       X                                                                             
                                                       X                                                                             
                                                       X                                                                             
                                                       X                                                                             
                                                       X                                                                             
                                                       X                                                                             
                                                       X                                                                             
 
 ***** Axes restored to original set *****
 -------------------------------------------------------------------
 Center     Atomic                   Forces (Hartrees/Bohr)
 Number     Number              X              Y              Z
 -------------------------------------------------------------------
      1        6           0.000557444    0.000000000   -0.000406610
      2        8          -0.000129000   -0.000000000    0.000239544
      3       17          -0.000343337    0.000000000    0.000143303
      4        1          -0.000085107    0.000000000    0.000023763
 -------------------------------------------------------------------
 Cartesian Forces:  Max     0.000557444 RMS     0.000240888
 Force constants in Cartesian coordinates: 
                1             2             3             4             5 
      1  0.392688D+00
      2  0.000000D+00  0.142208D+00
      3  0.471543D-01  0.000000D+00  0.108763D+01
      4 -0.106445D+00  0.000000D+00  0.116305D+00  0.102914D+00
      5  0.000000D+00 -0.565337D-01  0.000000D+00  0.000000D+00  0.224471D-01
      6  0.748192D-01  0.000000D+00 -0.881913D+00 -0.142275D+00  0.000000D+00
      7 -0.104475D+00  0.000000D+00 -0.261092D-01 -0.150424D-01  0.000000D+00
      8  0.000000D+00 -0.317395D-01  0.000000D+00  0.000000D+00  0.126111D-01
      9  0.806854D-02  0.000000D+00 -0.265982D-01  0.452767D-01  0.000000D+00
     10 -0.181768D+00  0.000000D+00 -0.137350D+00  0.185732D-01  0.000000D+00
     11  0.000000D+00 -0.539349D-01  0.000000D+00  0.000000D+00  0.214755D-01
     12 -0.130042D+00  0.000000D+00 -0.179115D+00 -0.193068D-01  0.000000D+00
                6             7             8             9            10 
      6  0.954501D+00
      7  0.619455D-01  0.146731D+00
      8  0.000000D+00  0.000000D+00  0.712020D-02
      9 -0.351925D-01 -0.495355D-01  0.000000D+00  0.552291D-01
     10  0.551040D-02 -0.272133D-01  0.000000D+00 -0.380971D-02  0.190408D+00
     11  0.000000D+00  0.000000D+00  0.120082D-01  0.000000D+00  0.000000D+00
     12 -0.373949D-01  0.136992D-01  0.000000D+00  0.656159D-02  0.135650D+00
               11            12 
     11  0.204511D-01
     12  0.000000D+00  0.209948D+00
 FormGI is forming the generalized inverse of G from B-inverse, IUseBI=4.
 Force constants in internal coordinates: 
                1             2             3             4             5 
      1  0.977624D+00
      2  0.752707D-01  0.168400D+00
      3  0.228060D-01  0.890428D-02  0.336152D+00
      4  0.110664D-01  0.136573D-01 -0.563793D-02  0.144241D+00
      5  0.203126D-01 -0.313519D-01  0.566869D-02 -0.745383D-01  0.107577D+00
      6 -0.313790D-01  0.176946D-01 -0.307587D-04 -0.697027D-01 -0.330385D-01
      7  0.000000D+00  0.000000D+00  0.000000D+00  0.000000D+00  0.000000D+00
                6             7 
      6  0.102741D+00
      7  0.000000D+00  0.722404D-01
 Leave Link  716 at Wed Jun 15 08:22:48 2022, MaxMem=   262144000 cpu:               0.1 elap:               0.1
 (Enter /usr/local/gaussian/2016-C.01/g16/l103.exe)

 GradGradGradGradGradGradGradGradGradGradGradGradGradGradGradGradGradGrad
 Berny optimization.
 Red2BG is reusing G-inverse.
 Internal  Forces:  Max     0.000371916 RMS     0.000180610
 Search for a local minimum.
 Step number   1 out of a maximum of    2
 All quantities printed in internal units (Hartrees-Bohrs-Radians)
 Second derivative matrix not updated -- analytic derivatives used.
 The second derivative matrix:
                          R1        R2        R3        A1        A2
           R1           0.97762
           R2           0.07527   0.16840
           R3           0.02281   0.00890   0.33615
           A1           0.01107   0.01366  -0.00564   0.14424
           A2           0.02031  -0.03135   0.00567  -0.07454   0.10758
           A3          -0.03138   0.01769  -0.00003  -0.06970  -0.03304
           D1           0.00000  -0.00000  -0.00000  -0.00000  -0.00000
                          A3        D1
           A3           0.10274
           D1           0.00000   0.07224
 ITU=  0
     Eigenvalues ---    0.07224   0.10890   0.18191   0.22294   0.33597
     Eigenvalues ---    0.98701
 Angle between quadratic step and forces=  26.76 degrees.
 Linear search not attempted -- first point.
 Iteration  1 RMS(Cart)=  0.00079780 RMS(Int)=  0.00000034
 Iteration  2 RMS(Cart)=  0.00000036 RMS(Int)=  0.00000000
 ITry= 1 IFail=0 DXMaxC= 1.32D-03 DCOld= 1.00D+10 DXMaxT= 3.00D-01 DXLimC= 3.00D+00 Rises=F
 ClnCor:  largest displacement from symmetrization is 8.29D-13 for atom     1.
 Variable       Old X    -DE/DX   Delta X   Delta X   Delta X     New X
                                 (Linear)    (Quad)   (Total)
    R1        2.23981   0.00026   0.00000   0.00053   0.00053   2.24034
    R2        3.39846  -0.00037   0.00000  -0.00286  -0.00286   3.39560
    R3        2.07454   0.00004   0.00000   0.00019   0.00019   2.07473
    A1        2.15796   0.00008   0.00000   0.00049   0.00049   2.15844
    A2        2.21639  -0.00012   0.00000  -0.00143  -0.00143   2.21496
    A3        1.90884   0.00004   0.00000   0.00094   0.00094   1.90978
    D1        3.14159  -0.00000   0.00000  -0.00000   0.00000   3.14159
         Item               Value     Threshold  Converged?
 Maximum Force            0.000372     0.000450     YES
 RMS     Force            0.000181     0.000300     YES
 Maximum Displacement     0.001318     0.001800     YES
 RMS     Displacement     0.000798     0.001200     YES
 Predicted change in Energy=-7.291618D-07
 Optimization completed.
    -- Stationary point found.
                           ----------------------------
                           !   Optimized Parameters   !
                           ! (Angstroms and Degrees)  !
 --------------------------                            --------------------------
 ! Name  Definition              Value          Derivative Info.                !
 --------------------------------------------------------------------------------
 ! R1    R(1,2)                  1.1853         -DE/DX =    0.0003              !
 ! R2    R(1,3)                  1.7984         -DE/DX =   -0.0004              !
 ! R3    R(1,4)                  1.0978         -DE/DX =    0.0                 !
 ! A1    A(2,1,3)              123.6419         -DE/DX =    0.0001              !
 ! A2    A(2,1,4)              126.9896         -DE/DX =   -0.0001              !
 ! A3    A(3,1,4)              109.3685         -DE/DX =    0.0                 !
 ! D1    D(2,1,4,3)            180.0            -DE/DX =    0.0                 !
 --------------------------------------------------------------------------------
 GradGradGradGradGradGradGradGradGradGradGradGradGradGradGradGradGradGrad

 Leave Link  103 at Wed Jun 15 08:22:48 2022, MaxMem=   262144000 cpu:               0.0 elap:               0.0
 (Enter /usr/local/gaussian/2016-C.01/g16/l9999.exe)

 ----------------------------------------------------------------------

 Electric dipole moment (input orientation):
 (Debye = 10**-18 statcoulomb cm , SI units = C m)
                  (au)            (Debye)         (10**-30 SI)
   Tot        0.736272D+00      0.187142D+01      0.624237D+01
   x         -0.454541D+00     -0.115533D+01     -0.385376D+01
   y          0.000000D+00      0.000000D+00      0.000000D+00
   z         -0.579214D+00     -0.147221D+01     -0.491078D+01

 Dipole polarizability, Alpha (input orientation).
 (esu units = cm**3 , SI units = C**2 m**2 J**-1)
 Alpha(0;0):
               (au)            (10**-24 esu)      (10**-40 SI)
   iso        0.227174D+02      0.336636D+01      0.374559D+01
   aniso      0.219164D+02      0.324767D+01      0.361352D+01
   xx         0.309498D+02      0.458628D+01      0.510293D+01
   yx         0.000000D+00      0.000000D+00      0.000000D+00
   yy         0.118611D+02      0.175763D+01      0.195562D+01
   zx        -0.799067D+01     -0.118409D+01     -0.131748D+01
   zy         0.000000D+00      0.000000D+00      0.000000D+00
   zz         0.253413D+02      0.375519D+01      0.417821D+01

 ----------------------------------------------------------------------

 Dipole orientation:
     6          0.00555480         -0.00000000         -0.20396968
     8         -1.64903516         -0.00000000         -1.71363325
    17          3.30334805         -0.00000000         -1.02501105
     1         -0.18924379         -0.00000000          1.86139947

 Electric dipole moment (dipole orientation):
 (Debye = 10**-18 statcoulomb cm , SI units = C m)
                  (au)            (Debye)         (10**-30 SI)
   Tot        0.736272D+00      0.187142D+01      0.624237D+01
   x          0.000000D+00      0.000000D+00      0.000000D+00
   y          0.000000D+00      0.000000D+00      0.000000D+00
   z          0.736272D+00      0.187142D+01      0.624237D+01

 Dipole polarizability, Alpha (dipole orientation).
 (esu units = cm**3 , SI units = C**2 m**2 J**-1)
 Alpha(0;0):
               (au)            (10**-24 esu)      (10**-40 SI)
   iso        0.227174D+02      0.336636D+01      0.374559D+01
   aniso      0.219164D+02      0.324767D+01      0.361352D+01
   xx         0.365738D+02      0.541967D+01      0.603020D+01
   yx         0.000000D+00      0.000000D+00      0.000000D+00
   yy         0.118611D+02      0.175763D+01      0.195562D+01
   zx        -0.824094D+00     -0.122118D+00     -0.135875D+00
   zy         0.000000D+00      0.000000D+00      0.000000D+00
   zz         0.197173D+02      0.292180D+01      0.325094D+01

 ----------------------------------------------------------------------
 Unable to Open any file for archive entry.
 1\1\WWW.WCSS.PL-BEM-WN0941\Freq\RB3LYP\6-31G(d)\C1H1Cl1O1\ROOT\15-Jun-
 2022\0\\#P Geom=AllCheck Guess=TCheck SCRF=Check GenChk RB3LYP/6-31G(d
 ) Freq\\rembiszewski\\0,1\C,0.0689473159,0.,0.0830970014\O,-0.12665920
 44,0.,1.2521015931\Cl,1.7100305044,0.,-0.6524634325\H,-0.6868821573,0.
 ,-0.7130684954\\Version=EM64L-G16RevC.01\State=1-A'\HF=-574.1169982\RM
 SD=1.844e-09\RMSF=2.409e-04\ZeroPoint=0.0192433\Thermal=0.0224988\ETot
 =-574.0944994\HTot=-574.0935552\GTot=-574.1229907\Dipole=-0.4545409,0.
 ,-0.5792138\DipoleDeriv=1.7153052,0.,-0.5786621,0.,0.2453991,0.,-0.859
 6513,0.,1.350859,-0.5965278,0.,0.1661055,0.,-0.2517202,0.,0.5884583,0.
 ,-1.023749,-0.9652647,0.,0.4199205,0.,-0.1189016,0.,0.3177016,0.,-0.33
 24599,-0.1535126,0.,-0.007364,0.,0.1252227,0.,-0.0465086,0.,0.00535\Po
 lar=30.9497534,0.,11.8610525,-7.9906684,0.,25.3412548\Quadrupole=1.033
 6228,0.4765034,-1.5101262,0.,1.6540628,0.\PG=CS [SG(C1H1Cl1O1)]\NImag=
 0\\0.39268784,0.,0.14220807,0.04715427,0.,1.08762630,-0.10644480,0.,0.
 11630524,0.10291398,0.,-0.05653368,0.,0.,0.02244710,0.07481922,0.,-0.8
 8191340,-0.14227513,0.,0.95450076,-0.10447515,0.,-0.02610918,-0.015042
 40,0.,0.06194551,0.14673088,0.,-0.03173952,0.,0.,0.01261108,0.,0.,0.00
 712020,0.00806854,0.,-0.02659824,0.04527670,0.,-0.03519245,-0.04953553
 ,0.,0.05522911,-0.18176789,0.,-0.13735033,0.01857322,0.,0.00551040,-0.
 02721334,0.,-0.00380971,0.19040800,0.,-0.05393487,0.,0.,0.02147550,0.,
 0.,0.01200823,0.,0.,0.02045114,-0.13004203,0.,-0.17911466,-0.01930681,
 0.,-0.03739490,0.01369920,0.,0.00656159,0.13564964,0.,0.20994797\\-0.0
 0055744,0.,0.00040661,0.00012900,0.,-0.00023954,0.00034334,0.,-0.00014
 330,0.00008511,0.,-0.00002376\\\@
 The archive entry for this job was punched.


 K N O W I N G  IS A BARRIER WHICH PREVENTS LEARNING

                     -- TEACHING OF THE BENE GESSERIT
 Job cpu time:       0 days  0 hours  0 minutes 14.0 seconds.
 Elapsed time:       0 days  0 hours  0 minutes 14.4 seconds.
 File lengths (MBytes):  RWF=      6 Int=      0 D2E=      0 Chk=      1 Scr=      1
 Normal termination of Gaussian 16 at Wed Jun 15 08:22:48 2022.
